 vasp.6.1.0 28Jan20 (build Feb 21 2020 14:22:58) complex                        
  
 executed on       BelugaAllIntel date 2022.08.07  13:06:02
 running on   40 total cores
 distrk:  each k-point on   40 cores,    1 groups
 distr:  one band on NCORE=  40 cores,    1 groups


--------------------------------------------------------------------------------------------------------


 INCAR:
 POTCAR:    PAW_PBE C 08Apr2002                   
 -----------------------------------------------------------------------------
|                                                                             |
|           W    W    AA    RRRRR   N    N  II  N    N   GGGG   !!!           |
|           W    W   A  A   R    R  NN   N  II  NN   N  G    G  !!!           |
|           W    W  A    A  R    R  N N  N  II  N N  N  G       !!!           |
|           W WW W  AAAAAA  RRRRR   N  N N  II  N  N N  G  GGG   !            |
|           WW  WW  A    A  R   R   N   NN  II  N   NN  G    G                |
|           W    W  A    A  R    R  N    N  II  N    N   GGGG   !!!           |
|                                                                             |
|     For optimal performance we recommend to set                             |
|       NCORE = 4 - approx SQRT(number of cores).                             |
|     NCORE specifies how many cores store one orbital (NPAR=cpu/NCORE).      |
|     This setting can greatly improve the performance of VASP for DFT.       |
|     The default, NCORE=1 might be grossly inefficient on modern             |
|     multi-core architectures or massively parallel machines. Do your        |
|     own testing!!!!                                                         |
|     Unfortunately you need to use the default for GW and RPA                |
|     calculations (for HF NCORE is supported but not extensively tested      |
|     yet).                                                                   |
|                                                                             |
 -----------------------------------------------------------------------------

 POTCAR:    PAW_PBE C 08Apr2002                   
   VRHFIN =C: s2p2                                                                                  
   LEXCH  = PE                                                                                      
   EATOM  =   147.1560 eV,   10.8157 Ry                                                             
                                                                                                    
   TITEL  = PAW_PBE C 08Apr2002                                                                     
   LULTRA =        F    use ultrasoft PP ?                                                          
   IUNSCR =        1    unscreen: 0-lin 1-nonlin 2-no                                               
   RPACOR =    1.200    partial core radius                                                         
   POMASS =   12.011; ZVAL   =    4.000    mass and valenz                                          
   RCORE  =    1.500    outmost cutoff radius                                                       
   RWIGS  =    1.630; RWIGS  =    0.863    wigner-seitz radius (au A)                               
   ENMAX  =  400.000; ENMIN  =  300.000 eV                                                          
   ICORE  =        2    local potential                                                             
   LCOR   =        T    correct aug charges                                                         
   LPAW   =        T    paw PP                                                                      
   EAUG   =  644.873                                                                                
   DEXC   =    0.000                                                                                
   RMAX   =    1.529    core radius for proj-oper                                                   
   RAUG   =    1.300    factor for augmentation sphere                                              
   RDEP   =    1.501    radius for radial grids                                                     
   RDEPT  =    1.300    core radius for aug-charge                                                  
                                                                                                    
   Atomic configuration                                                                             
    4 entries                                                                                       
     n  l   j            E        occ.                                                              
     1  0  0.50      -273.3789   2.0000                                                             
     2  0  0.50       -13.7508   2.0000                                                             
     2  1  0.50        -5.2854   2.0000                                                             
     3  2  1.50        -5.4423   0.0000                                                             
   Description                                                                                      
     l       E           TYP  RCUT    TYP  RCUT                                                     
     0    -13.7508458     23  1.200                                                                 
     0     -8.2022199     23  1.200                                                                 
     1     -5.2854383     23  1.500                                                                 
     1     34.0145650     23  1.500                                                                 
     2     -5.4423304      7  1.500                                                                 
  local pseudopotential read in
  partial core-charges read in
  partial kinetic energy density read in
  atomic valenz-charges read in
  non local Contribution for L=           0  read in
    real space projection operators read in
  non local Contribution for L=           0  read in
    real space projection operators read in
  non local Contribution for L=           1  read in
    real space projection operators read in
  non local Contribution for L=           1  read in
    real space projection operators read in
    PAW grid and wavefunctions read in
 
   number of l-projection  operators is LMAX  =           4
   number of lm-projection operators is LMMAX =           8
 
 Optimization of the real space projectors (new method)

 maximal supplied QI-value         = 25.13
 optimisation between [QCUT,QGAM] = [ 11.56, 23.12] = [ 37.43,149.72] Ry 
 Optimized for a Real-space Cutoff    1.04 Angstroem

   l    n(q)    QCUT    max X(q) W(low)/X(q) W(high)/X(q)  e(spline) 
   0      7    11.561   115.676    0.20E-03    0.60E-03    0.21E-06
   0      7    11.561    87.132    0.20E-03    0.59E-03    0.21E-06
   1      7    11.561     4.429    0.23E-03    0.35E-03    0.15E-06
   1      7    11.561     2.733    0.18E-03    0.25E-03    0.12E-06
  PAW_PBE C 08Apr2002                   :
 energy of atom  1       EATOM= -147.1560
 kinetic energy error for atom=    0.0071 (will be added to EATOM!!)
 
 
 POSCAR: Primitive Cell
  positions in direct lattice
  No initial velocities read in
 exchange correlation table for  LEXCH =        8
   RHO(1)=    0.500       N(1)  =     2000
   RHO(2)=  100.500       N(2)  =     4000
 


--------------------------------------------------------------------------------------------------------


 ion  position               nearest neighbor table
   1  0.093  0.215  0.000-  54 1.40   2 1.43   3 1.47
   2  0.030  0.278  0.000-  21 1.40   1 1.43   5 1.47
   3  0.222  0.300  0.000-   4 1.42  44 1.44   1 1.47
   4  0.225  0.411  0.000-   6 1.36   3 1.42   5 1.42
   5  0.114  0.407  0.000-   4 1.42  42 1.44   2 1.47
   6  0.330  0.515  0.000-   4 1.36   7 1.42  10 1.42
   7  0.441  0.519  0.000-   6 1.42  51 1.44   8 1.47
   8  0.526  0.648  0.000-  11 1.40   9 1.43   7 1.47
   9  0.462  0.711  0.000-  14 1.40   8 1.43  10 1.47
  10  0.334  0.626  0.000-   6 1.42  47 1.44   9 1.47
  11  0.650  0.708  0.000-   8 1.40  39 1.40  12 1.44
  12  0.715  0.837  0.000-  15 1.42  13 1.42  11 1.44
  13  0.651  0.900  0.000-  12 1.42  16 1.42  14 1.44
  14  0.523  0.836  0.000-  19 1.40   9 1.40  13 1.44
  15  0.841  0.900  0.000-  12 1.42  24 1.42  41 1.44
  16  0.715  0.026  0.000-  20 1.42  13 1.42  17 1.44
  17  0.650  0.090  0.000-  23 1.40  18 1.40  16 1.44
  18  0.526  0.026  0.000-  17 1.40  19 1.43  30 1.47
  19  0.462  0.900  0.000-  14 1.40  18 1.43  32 1.47
  20  0.841  0.089  0.000-  24 1.42  16 1.42  21 1.44
  21  0.905  0.218  0.000-   2 1.40  22 1.40  20 1.44
  22  0.841  0.278  0.000-  21 1.40  23 1.43  33 1.47
  23  0.714  0.215  0.000-  17 1.40  22 1.43  35 1.47
  24  0.904  0.026  0.000-  20 1.42  15 1.42  54 1.44
  25  0.030  0.900  0.000-  41 1.40  26 1.43  27 1.47
  26  0.093  0.026  0.000-  54 1.40  25 1.43  29 1.47
  27  0.114  0.856  0.000-  28 1.42  45 1.44  25 1.47
  28  0.225  0.963  0.000-  31 1.36  27 1.42  29 1.42
  29  0.222  0.070  0.000-  28 1.42  43 1.44  26 1.47
  30  0.441  0.070  0.000-  31 1.42  50 1.44  18 1.47
  31  0.330  0.963  0.000-  28 1.36  32 1.42  30 1.42
  32  0.334  0.856  0.000-  31 1.42  46 1.44  19 1.47
  33  0.885  0.407  0.000-  34 1.42  48 1.44  22 1.47
  34  0.778  0.411  0.000-  36 1.36  33 1.42  35 1.42
  35  0.671  0.300  0.000-  34 1.42  49 1.44  23 1.47
  36  0.778  0.515  0.000-  34 1.36  40 1.42  37 1.42
  37  0.885  0.626  0.000-  36 1.42  53 1.44  38 1.47
  38  0.841  0.711  0.000-  41 1.40  39 1.43  37 1.47
  39  0.714  0.648  0.000-  11 1.40  38 1.43  40 1.47
  40  0.671  0.519  0.000-  36 1.42  52 1.44  39 1.47
  41  0.905  0.836  0.000-  25 1.40  38 1.40  15 1.44
  42  0.111  0.516  0.000-   5 1.44  48 1.48  47 1.48
  43  0.330  0.182  0.000-  29 1.44  44 1.48  50 1.48
  44  0.330  0.296  0.000-   3 1.44  43 1.48  51 1.48
  45  0.111  0.744  0.000-  27 1.44  53 1.48  46 1.48
  46  0.225  0.744  0.000-  32 1.44  47 1.48  45 1.48
  47  0.225  0.630  0.000-  10 1.44  46 1.48  42 1.48
  48  0.997  0.516  0.000-  33 1.44  42 1.48  53 1.48
  49  0.558  0.296  0.000-  35 1.44  50 1.48  52 1.48
  50  0.445  0.182  0.000-  30 1.44  49 1.48  43 1.48
  51  0.445  0.410  0.000-   7 1.44  52 1.48  44 1.48
  52  0.558  0.410  0.000-  40 1.44  51 1.48  49 1.48
  53  0.997  0.630  0.000-  37 1.44  45 1.48  48 1.48
  54  0.032  0.090  0.000-   1 1.40  26 1.40  24 1.44
 
 -----------------------------------------------------------------------------
|                                                                             |
|           W    W    AA    RRRRR   N    N  II  N    N   GGGG   !!!           |
|           W    W   A  A   R    R  NN   N  II  NN   N  G    G  !!!           |
|           W    W  A    A  R    R  N N  N  II  N N  N  G       !!!           |
|           W WW W  AAAAAA  RRRRR   N  N N  II  N  N N  G  GGG   !            |
|           WW  WW  A    A  R   R   N   NN  II  N   NN  G    G                |
|           W    W  A    A  R    R  N    N  II  N    N   GGGG   !!!           |
|                                                                             |
|     The determination of the symmetry of your systems shows a strong        |
|     dependence on the tolerance parameter SYMPREC. This is often the        |
|     result of "noise" in the structural parameters (lattice vectors         |
|     and/or ionic positions). Set NWRITE=3 for more details.                 |
|                                                                             |
 -----------------------------------------------------------------------------

  LATTYP: Found a hexagonal cell.
 ALAT       =    12.9891243600
 C/A-ratio  =     0.7698748370
  
  Lattice vectors:
  
 A1 = (  12.9890874866,   0.0000000000,   0.0000000000)
 A2 = (  -6.4945433800,  11.2489221033,   0.0000000000)
 A3 = (   0.0000000000,   0.0000000000,  10.0000000000)


Analysis of symmetry for initial positions (statically):
=====================================================================
 Subroutine PRICEL returns:
 Original cell was already a primitive cell.
 

 Routine SETGRP: Setting up the symmetry group for a 
 hexagonal supercell.


 Subroutine GETGRP returns: Found  2 space group operations
 (whereof  2 operations were pure point group operations)
 out of a pool of 24 trial point group operations.


The static configuration has the point symmetry C_1h.


Analysis of symmetry for dynamics (positions and initial velocities):
=====================================================================
 Subroutine PRICEL returns:
 Original cell was already a primitive cell.
 

 Routine SETGRP: Setting up the symmetry group for a 
 hexagonal supercell.


 Subroutine GETGRP returns: Found  2 space group operations
 (whereof  2 operations were pure point group operations)
 out of a pool of 24 trial point group operations.


The dynamic configuration has the point symmetry C_1h.


 Subroutine INISYM returns: Found  2 space group operations
 (whereof  2 operations are pure point group operations),
 and found     1 'primitive' translations


----------------------------------------------------------------------------------------

                                     Primitive cell                                     

  volume of cell :    1461.1323

  direct lattice vectors                    reciprocal lattice vectors
    12.989087487  0.000000000  0.000000000     0.076987702  0.044448701  0.000000000
    -6.494543380 11.248922103  0.000000000     0.000000000  0.088897406  0.000000000
     0.000000000  0.000000000 10.000000000     0.000000000  0.000000000  0.100000000

  length of vectors
    12.989087487 12.989123997 10.000000000     0.088897656  0.088897406  0.100000000

  position of ions in fractional coordinates (direct lattice)
     0.093237898  0.215077342  0.000000000
     0.029872252  0.278423241  0.000000000
     0.221554302  0.299670472  0.000000000
     0.225464189  0.410667883  0.000000000
     0.114460691  0.406765688  0.000000000
     0.330105922  0.515292274  0.000000000
     0.441086487  0.519182896  0.000000000
     0.525690761  0.647521904  0.000000000
     0.462346337  0.710884189  0.000000000
     0.334033278  0.626296912  0.000000000
     0.650467430  0.708329018  0.000000000
     0.714631141  0.836666149  0.000000000
     0.651490625  0.899829584  0.000000000
     0.523160144  0.835655634  0.000000000
     0.840927684  0.899816349  0.000000000
     0.714641084  0.026151681  0.000000000
     0.650448859  0.090296178  0.000000000
     0.525677270  0.026326044  0.000000000
     0.462347851  0.899611909  0.000000000
     0.840951586  0.089304112  0.000000000
     0.905108946  0.217621284  0.000000000
     0.841121901  0.278404036  0.000000000
     0.714411653  0.215059905  0.000000000
     0.904106900  0.026149383  0.000000000
     0.029834069  0.899599073  0.000000000
     0.093223673  0.026318896  0.000000000
     0.114403791  0.855823045  0.000000000
     0.225418700  0.962894116  0.000000000
     0.221547183  0.070022453  0.000000000
     0.441040674  0.070027255  0.000000000
     0.330051490  0.962896790  0.000000000
     0.334001412  0.855824130  0.000000000
     0.884884188  0.406741761  0.000000000
     0.777787205  0.410650196  0.000000000
     0.670681784  0.299649168  0.000000000
     0.777778078  0.515266306  0.000000000
     0.884883938  0.626274186  0.000000000
     0.841153524  0.710866441  0.000000000
     0.714440399  0.647513458  0.000000000
     0.670684511  0.519175343  0.000000000
     0.905075904  0.835637050  0.000000000
     0.111051815  0.515557039  0.000000000
     0.330308275  0.182269971  0.000000000
     0.330327452  0.296217725  0.000000000
     0.111024463  0.743621301  0.000000000
     0.225225470  0.743619464  0.000000000
     0.225237615  0.629719797  0.000000000
     0.997106496  0.515552374  0.000000000
     0.558468917  0.296207250  0.000000000
     0.444507145  0.182266297  0.000000000
     0.444511983  0.410388387  0.000000000
     0.558462115  0.410381573  0.000000000
     0.997105575  0.629708026  0.000000000
     0.032426975  0.090307064  0.000000000

  ion indices of the primitive-cell ions
   primitive index   ion index
                 1           1
                 2           2
                 3           3
                 4           4
                 5           5
                 6           6
                 7           7
                 8           8
                 9           9
                10          10
                11          11
                12          12
                13          13
                14          14
                15          15
                16          16
                17          17
                18          18
                19          19
                20          20
                21          21
                22          22
                23          23
                24          24
                25          25
                26          26
                27          27
                28          28
                29          29
                30          30
                31          31
                32          32
                33          33
                34          34
                35          35
                36          36
                37          37
                38          38
                39          39
                40          40
                41          41
                42          42
                43          43
                44          44
                45          45
                46          46
                47          47
                48          48
                49          49
                50          50
                51          51
                52          52
                53          53
                54          54

----------------------------------------------------------------------------------------

 
 
 KPOINTS: K-Path Generated by VASPKIT.            
  interpolating k-points between supplied coordinates
  k-points in reciprocal lattice
Space group operators:
 irot       det(A)        alpha          n_x          n_y          n_z        tau_x        tau_y        tau_z
    1     1.000000     0.000000     1.000000     0.000000     0.000000     0.000000     0.000000     0.000000
    2    -1.000000   180.000000     0.000000     0.000000     1.000000     0.000000     0.000000     0.000000


--------------------------------------------------------------------------------------------------------




 Dimension of arrays:
   k-points           NKPTS =    120   k-points in BZ     NKDIM =    120   number of bands    NBANDS=    136
   number of dos      NEDOS =   1000   number of ions     NIONS =     54
   non local maximal  LDIM  =      4   non local SUM 2l+1 LMDIM =      8
   total plane-waves  NPLWV = 768320
   max r-space proj   IRMAX =   2559   max aug-charges    IRDMAX=  49836
   dimension x,y,z NGX =    98 NGY =   98 NGZ =   80
   dimension x,y,z NGXF=   196 NGYF=  196 NGZF=  160
   support grid    NGXF=   392 NGYF=  392 NGZF=  320
   ions per type =              54
   NGX,Y,Z   is equivalent  to a cutoff of  12.54, 12.54, 13.30 a.u.
   NGXF,Y,Z  is equivalent  to a cutoff of  25.09, 25.09, 26.60 a.u.

 SYSTEM =  unknown system                          
 POSCAR =  Primitive Cell                          

 Startparameter for this run:
   NWRITE =      2    write-flag & timer
   PREC   = accura    normal or accurate (medium, high low for compatibility)
   ISTART =      0    job   : 0-new  1-cont  2-samecut
   ICHARG =     11    charge: 1-file 2-atom 10-const
   ISPIN  =      1    spin polarized calculation?
   LNONCOLLINEAR =      F non collinear calculations
   LSORBIT =      F    spin-orbit coupling
   INIWAV =      1    electr: 0-lowe 1-rand  2-diag
   LASPH  =      F    aspherical Exc in radial PAW
   METAGGA=      F    non-selfconsistent MetaGGA calc.

 Electronic Relaxation 1
   ENCUT  =  520.0 eV  38.22 Ry    6.18 a.u.  24.15 24.15 18.59*2*pi/ulx,y,z
   ENINI  =  520.0     initial cutoff
   ENAUG  =  644.9 eV  augmentation charge cutoff
   NELM   =     80;   NELMIN=  4; NELMDL=  0     # of ELM steps 
   EDIFF  = 0.1E-07   stopping-criterion for ELM
   LREAL  =      T    real-space projection
   NLSPLINE    = F    spline interpolate recip. space projectors
   LCOMPAT=      F    compatible to vasp.4.4
   GGA_COMPAT  = T    GGA compatible to vasp.4.4-vasp.4.6
   LMAXPAW     = -100 max onsite density
   LMAXMIX     =    2 max onsite mixed and CHGCAR
   VOSKOWN=      0    Vosko Wilk Nusair interpolation
   ROPT   =   -0.00025
 Ionic relaxation
   EDIFFG = 0.1E-06   stopping-criterion for IOM
   NSW    =      0    number of steps for IOM
   NBLOCK =      1;   KBLOCK =      1    inner block; outer block 
   IBRION =     -1    ionic relax: 0-MD 1-quasi-New 2-CG
   NFREE  =      0    steps in history (QN), initial steepest desc. (CG)
   ISIF   =      2    stress and relaxation
   IWAVPR =     10    prediction:  0-non 1-charg 2-wave 3-comb
   ISYM   =      2    0-nonsym 1-usesym 2-fastsym
   LCORR  =      T    Harris-Foulkes like correction to forces

   POTIM  = 0.5000    time-step for ionic-motion
   TEIN   =    0.0    initial temperature
   TEBEG  =    0.0;   TEEND  =   0.0 temperature during run
   SMASS  =  -3.00    Nose mass-parameter (am)
   estimated Nose-frequenzy (Omega)   =  0.10E-29 period in steps = 0.13E+47 mass=  -0.386E-26a.u.
   SCALEE = 1.0000    scale energy and forces
   NPACO  =    256;   APACO  = 16.0  distance and # of slots for P.C.
   PSTRESS=    0.0 pullay stress

  Mass of Ions in am
   POMASS =  12.01
  Ionic Valenz
   ZVAL   =   4.00
  Atomic Wigner-Seitz radii
   RWIGS  =  -1.00
  virtual crystal weights 
   VCA    =   1.00
   NELECT =     216.0000    total number of electrons
   NUPDOWN=      -1.0000    fix difference up-down

 DOS related values:
   EMIN   =  10.00;   EMAX   =-10.00  energy-range for DOS
   EFERMI =   0.00
   ISMEAR =     0;   SIGMA  =   0.05  broadening in eV -4-tet -1-fermi 0-gaus

 Electronic relaxation 2 (details)
   IALGO  =     48    algorithm
   LDIAG  =      T    sub-space diagonalisation (order eigenvalues)
   LSUBROT=      F    optimize rotation matrix (better conditioning)
   TURBO    =      0    0=normal 1=particle mesh
   IRESTART =      0    0=no restart 2=restart with 2 vectors
   NREBOOT  =      0    no. of reboots
   NMIN     =      0    reboot dimension
   EREF     =   0.00    reference energy to select bands
   IMIX   =      4    mixing-type and parameters
     AMIX     =   0.40;   BMIX     =  1.00
     AMIX_MAG =   1.60;   BMIX_MAG =  1.00
     AMIN     =   0.10
     WC   =   100.;   INIMIX=   1;  MIXPRE=   1;  MAXMIX= -45

 Intra band minimization:
   WEIMIN = 0.0000     energy-eigenvalue tresh-hold
   EBREAK =  0.18E-10  absolut break condition
   DEPER  =   0.30     relativ break condition  

   TIME   =   0.40     timestep for ELM

  volume/ion in A,a.u.               =      27.06       182.60
  Fermi-wavevector in a.u.,A,eV,Ry     =   0.865625  1.635793 10.194925  0.749306
  Thomas-Fermi vector in A             =   1.983895
 
 Write flags
   LWAVE        =      T    write WAVECAR
   LDOWNSAMPLE  =      F    k-point downsampling of WAVECAR
   LCHARG       =      T    write CHGCAR
   LVTOT        =      F    write LOCPOT, total local potential
   LVHAR        =      F    write LOCPOT, Hartree potential only
   LELF         =      F    write electronic localiz. function (ELF)
   LORBIT       =     11    0 simple, 1 ext, 2 COOP (PROOUT), +10 PAW based schemes


 Dipole corrections
   LMONO  =      F    monopole corrections only (constant potential shift)
   LDIPOL =      F    correct potential (dipole corrections)
   IDIPOL =      0    1-x, 2-y, 3-z, 4-all directions 
   EPSILON=  1.0000000 bulk dielectric constant

 Exchange correlation treatment:
   GGA     =    --    GGA type
   LEXCH   =     8    internal setting for exchange type
   VOSKOWN=      0    Vosko Wilk Nusair interpolation
   LHFCALC =     F    Hartree Fock is set to
   LHFONE  =     F    Hartree Fock one center treatment
   AEXX    =    0.0000 exact exchange contribution

 Linear response parameters
   LEPSILON=     F    determine dielectric tensor
   LRPA    =     F    only Hartree local field effects (RPA)
   LNABLA  =     F    use nabla operator in PAW spheres
   LVEL    =     F    velocity operator in full k-point grid
   LINTERFAST=   F  fast interpolation
   KINTER  =     0    interpolate to denser k-point grid
   CSHIFT  =0.1000    complex shift for real part using Kramers Kronig
   OMEGAMAX=  -1.0    maximum frequency
   DEG_THRESHOLD= 0.2000000E-02 threshold for treating states as degnerate
   RTIME   =   -0.100 relaxation time in fs
  (WPLASMAI=    0.000 imaginary part of plasma frequency in eV, 0.658/RTIME)
   DFIELD  = 0.0000000 0.0000000 0.0000000 field for delta impulse in time
 
 Orbital magnetization related:
   ORBITALMAG=     F  switch on orbital magnetization
   LCHIMAG   =     F  perturbation theory with respect to B field
   DQ        =  0.001000  dq finite difference perturbation B field
   LLRAUG    =     F  two centre corrections for induced B field



--------------------------------------------------------------------------------------------------------


 Static calculation
 charge density and potential remain constant during run
 non-spin polarized calculation
 RMM-DIIS sequential band-by-band
 perform sub-space diagonalisation
    before iterative eigenvector-optimisation
 no mixing
 using additional bands           28
 real space projection scheme for non local part
 use partial core corrections
 calculate Harris-corrections to forces 
   (improved forces if not selfconsistent)
 use gradient corrections 
 WARNING: stress and forces are not correct
  (second derivative of E(xc) not defined)
 use of overlap-Matrix (Vanderbilt PP)
 Gauss-broadening in eV      SIGMA  =   0.05


--------------------------------------------------------------------------------------------------------


  energy-cutoff  :      520.00
  volume of cell :     1461.13
      direct lattice vectors                 reciprocal lattice vectors
    12.989087487  0.000000000  0.000000000     0.076987702  0.044448701  0.000000000
    -6.494543380 11.248922103  0.000000000     0.000000000  0.088897406  0.000000000
     0.000000000  0.000000000 10.000000000     0.000000000  0.000000000  0.100000000

  length of vectors
    12.989087487 12.989123997 10.000000000     0.088897656  0.088897406  0.100000000


 
 k-points in units of 2pi/SCALE and weight: K-Path Generated by VASPKIT.            
   0.00000000  0.00000000  0.00000000       0.008
   0.00098702  0.00056986  0.00000000       0.008
   0.00197404  0.00113971  0.00000000       0.008
   0.00296107  0.00170957  0.00000000       0.008
   0.00394809  0.00227942  0.00000000       0.008
   0.00493511  0.00284928  0.00000000       0.008
   0.00592213  0.00341913  0.00000000       0.008
   0.00690915  0.00398899  0.00000000       0.008
   0.00789617  0.00455884  0.00000000       0.008
   0.00888320  0.00512870  0.00000000       0.008
   0.00987022  0.00569855  0.00000000       0.008
   0.01085724  0.00626841  0.00000000       0.008
   0.01184426  0.00683826  0.00000000       0.008
   0.01283128  0.00740812  0.00000000       0.008
   0.01381831  0.00797797  0.00000000       0.008
   0.01480533  0.00854783  0.00000000       0.008
   0.01579235  0.00911768  0.00000000       0.008
   0.01677937  0.00968754  0.00000000       0.008
   0.01776639  0.01025739  0.00000000       0.008
   0.01875341  0.01082725  0.00000000       0.008
   0.01974044  0.01139710  0.00000000       0.008
   0.02072746  0.01196696  0.00000000       0.008
   0.02171448  0.01253681  0.00000000       0.008
   0.02270150  0.01310667  0.00000000       0.008
   0.02368852  0.01367652  0.00000000       0.008
   0.02467555  0.01424638  0.00000000       0.008
   0.02566257  0.01481623  0.00000000       0.008
   0.02664959  0.01538609  0.00000000       0.008
   0.02763661  0.01595594  0.00000000       0.008
   0.02862363  0.01652580  0.00000000       0.008
   0.02961065  0.01709565  0.00000000       0.008
   0.03059768  0.01766551  0.00000000       0.008
   0.03158470  0.01823536  0.00000000       0.008
   0.03257172  0.01880522  0.00000000       0.008
   0.03355874  0.01937507  0.00000000       0.008
   0.03454576  0.01994493  0.00000000       0.008
   0.03553279  0.02051478  0.00000000       0.008
   0.03651981  0.02108464  0.00000000       0.008
   0.03750683  0.02165450  0.00000000       0.008
   0.03849385  0.02222435  0.00000000       0.008
   0.03849385  0.02222435  0.00000000       0.008
   0.03816484  0.02279421  0.00000000       0.008
   0.03783584  0.02336406  0.00000000       0.008
   0.03750683  0.02393392  0.00000000       0.008
   0.03717782  0.02450377  0.00000000       0.008
   0.03684881  0.02507363  0.00000000       0.008
   0.03651981  0.02564348  0.00000000       0.008
   0.03619080  0.02621334  0.00000000       0.008
   0.03586179  0.02678319  0.00000000       0.008
   0.03553279  0.02735305  0.00000000       0.008
   0.03520378  0.02792290  0.00000000       0.008
   0.03487477  0.02849276  0.00000000       0.008
   0.03454576  0.02906261  0.00000000       0.008
   0.03421676  0.02963247  0.00000000       0.008
   0.03388775  0.03020232  0.00000000       0.008
   0.03355874  0.03077218  0.00000000       0.008
   0.03322973  0.03134203  0.00000000       0.008
   0.03290073  0.03191189  0.00000000       0.008
   0.03257172  0.03248174  0.00000000       0.008
   0.03224271  0.03305160  0.00000000       0.008
   0.03191371  0.03362145  0.00000000       0.008
   0.03158470  0.03419131  0.00000000       0.008
   0.03125569  0.03476116  0.00000000       0.008
   0.03092668  0.03533102  0.00000000       0.008
   0.03059768  0.03590087  0.00000000       0.008
   0.03026867  0.03647073  0.00000000       0.008
   0.02993966  0.03704059  0.00000000       0.008
   0.02961065  0.03761044  0.00000000       0.008
   0.02928165  0.03818030  0.00000000       0.008
   0.02895264  0.03875015  0.00000000       0.008
   0.02862363  0.03932001  0.00000000       0.008
   0.02829463  0.03988986  0.00000000       0.008
   0.02796562  0.04045972  0.00000000       0.008
   0.02763661  0.04102957  0.00000000       0.008
   0.02730760  0.04159943  0.00000000       0.008
   0.02697860  0.04216928  0.00000000       0.008
   0.02664959  0.04273914  0.00000000       0.008
   0.02632058  0.04330899  0.00000000       0.008
   0.02599157  0.04387885  0.00000000       0.008
   0.02566257  0.04444870  0.00000000       0.008
   0.02566257  0.04444870  0.00000000       0.008
   0.02500455  0.04330899  0.00000000       0.008
   0.02434654  0.04216928  0.00000000       0.008
   0.02368852  0.04102957  0.00000000       0.008
   0.02303051  0.03988986  0.00000000       0.008
   0.02237249  0.03875015  0.00000000       0.008
   0.02171448  0.03761044  0.00000000       0.008
   0.02105647  0.03647073  0.00000000       0.008
   0.02039845  0.03533102  0.00000000       0.008
   0.01974044  0.03419131  0.00000000       0.008
   0.01908242  0.03305160  0.00000000       0.008
   0.01842441  0.03191189  0.00000000       0.008
   0.01776639  0.03077218  0.00000000       0.008
   0.01710838  0.02963247  0.00000000       0.008
   0.01645036  0.02849276  0.00000000       0.008
   0.01579235  0.02735305  0.00000000       0.008
   0.01513433  0.02621334  0.00000000       0.008
   0.01447632  0.02507363  0.00000000       0.008
   0.01381831  0.02393392  0.00000000       0.008
   0.01316029  0.02279421  0.00000000       0.008
   0.01250228  0.02165450  0.00000000       0.008
   0.01184426  0.02051479  0.00000000       0.008
   0.01118625  0.01937508  0.00000000       0.008
   0.01052823  0.01823537  0.00000000       0.008
   0.00987022  0.01709565  0.00000000       0.008
   0.00921220  0.01595594  0.00000000       0.008
   0.00855419  0.01481623  0.00000000       0.008
   0.00789617  0.01367652  0.00000000       0.008
   0.00723816  0.01253681  0.00000000       0.008
   0.00658015  0.01139710  0.00000000       0.008
   0.00592213  0.01025739  0.00000000       0.008
   0.00526412  0.00911768  0.00000000       0.008
   0.00460610  0.00797797  0.00000000       0.008
   0.00394809  0.00683826  0.00000000       0.008
   0.00329007  0.00569855  0.00000000       0.008
   0.00263206  0.00455884  0.00000000       0.008
   0.00197404  0.00341913  0.00000000       0.008
   0.00131603  0.00227942  0.00000000       0.008
   0.00065801  0.00113971  0.00000000       0.008
  -0.00000000 -0.00000000  0.00000000       0.008
 
 k-points in reciprocal lattice and weights: K-Path Generated by VASPKIT.            
   0.00000000  0.00000000  0.00000000       0.008
   0.01282051  0.00000000  0.00000000       0.008
   0.02564103  0.00000000  0.00000000       0.008
   0.03846154  0.00000000  0.00000000       0.008
   0.05128205  0.00000000  0.00000000       0.008
   0.06410256  0.00000000  0.00000000       0.008
   0.07692308  0.00000000  0.00000000       0.008
   0.08974359  0.00000000  0.00000000       0.008
   0.10256410  0.00000000  0.00000000       0.008
   0.11538462  0.00000000  0.00000000       0.008
   0.12820513  0.00000000  0.00000000       0.008
   0.14102564  0.00000000  0.00000000       0.008
   0.15384615  0.00000000  0.00000000       0.008
   0.16666667  0.00000000  0.00000000       0.008
   0.17948718  0.00000000  0.00000000       0.008
   0.19230769  0.00000000  0.00000000       0.008
   0.20512821  0.00000000  0.00000000       0.008
   0.21794872  0.00000000  0.00000000       0.008
   0.23076923  0.00000000  0.00000000       0.008
   0.24358974  0.00000000  0.00000000       0.008
   0.25641026  0.00000000  0.00000000       0.008
   0.26923077  0.00000000  0.00000000       0.008
   0.28205128  0.00000000  0.00000000       0.008
   0.29487179  0.00000000  0.00000000       0.008
   0.30769231  0.00000000  0.00000000       0.008
   0.32051282  0.00000000  0.00000000       0.008
   0.33333333  0.00000000  0.00000000       0.008
   0.34615385  0.00000000  0.00000000       0.008
   0.35897436  0.00000000  0.00000000       0.008
   0.37179487  0.00000000  0.00000000       0.008
   0.38461538  0.00000000  0.00000000       0.008
   0.39743590  0.00000000  0.00000000       0.008
   0.41025641  0.00000000  0.00000000       0.008
   0.42307692  0.00000000  0.00000000       0.008
   0.43589744  0.00000000  0.00000000       0.008
   0.44871795  0.00000000  0.00000000       0.008
   0.46153846  0.00000000  0.00000000       0.008
   0.47435897  0.00000000  0.00000000       0.008
   0.48717949  0.00000000  0.00000000       0.008
   0.50000000  0.00000000  0.00000000       0.008
   0.50000000  0.00000000  0.00000000       0.008
   0.49572650  0.00854701  0.00000000       0.008
   0.49145299  0.01709402  0.00000000       0.008
   0.48717949  0.02564103  0.00000000       0.008
   0.48290598  0.03418803  0.00000000       0.008
   0.47863248  0.04273504  0.00000000       0.008
   0.47435897  0.05128205  0.00000000       0.008
   0.47008547  0.05982906  0.00000000       0.008
   0.46581197  0.06837607  0.00000000       0.008
   0.46153846  0.07692308  0.00000000       0.008
   0.45726496  0.08547009  0.00000000       0.008
   0.45299145  0.09401709  0.00000000       0.008
   0.44871795  0.10256410  0.00000000       0.008
   0.44444444  0.11111111  0.00000000       0.008
   0.44017094  0.11965812  0.00000000       0.008
   0.43589744  0.12820513  0.00000000       0.008
   0.43162393  0.13675214  0.00000000       0.008
   0.42735043  0.14529915  0.00000000       0.008
   0.42307692  0.15384615  0.00000000       0.008
   0.41880342  0.16239316  0.00000000       0.008
   0.41452991  0.17094017  0.00000000       0.008
   0.41025641  0.17948718  0.00000000       0.008
   0.40598291  0.18803419  0.00000000       0.008
   0.40170940  0.19658120  0.00000000       0.008
   0.39743590  0.20512821  0.00000000       0.008
   0.39316239  0.21367521  0.00000000       0.008
   0.38888889  0.22222222  0.00000000       0.008
   0.38461538  0.23076923  0.00000000       0.008
   0.38034188  0.23931624  0.00000000       0.008
   0.37606838  0.24786325  0.00000000       0.008
   0.37179487  0.25641026  0.00000000       0.008
   0.36752137  0.26495726  0.00000000       0.008
   0.36324786  0.27350427  0.00000000       0.008
   0.35897436  0.28205128  0.00000000       0.008
   0.35470085  0.29059829  0.00000000       0.008
   0.35042735  0.29914530  0.00000000       0.008
   0.34615385  0.30769231  0.00000000       0.008
   0.34188034  0.31623932  0.00000000       0.008
   0.33760684  0.32478632  0.00000000       0.008
   0.33333333  0.33333333  0.00000000       0.008
   0.33333333  0.33333333  0.00000000       0.008
   0.32478632  0.32478632  0.00000000       0.008
   0.31623932  0.31623932  0.00000000       0.008
   0.30769231  0.30769231  0.00000000       0.008
   0.29914530  0.29914530  0.00000000       0.008
   0.29059829  0.29059829  0.00000000       0.008
   0.28205128  0.28205128  0.00000000       0.008
   0.27350427  0.27350427  0.00000000       0.008
   0.26495726  0.26495726  0.00000000       0.008
   0.25641026  0.25641026  0.00000000       0.008
   0.24786325  0.24786325  0.00000000       0.008
   0.23931624  0.23931624  0.00000000       0.008
   0.23076923  0.23076923  0.00000000       0.008
   0.22222222  0.22222222  0.00000000       0.008
   0.21367521  0.21367521  0.00000000       0.008
   0.20512821  0.20512821  0.00000000       0.008
   0.19658120  0.19658120  0.00000000       0.008
   0.18803419  0.18803419  0.00000000       0.008
   0.17948718  0.17948718  0.00000000       0.008
   0.17094017  0.17094017  0.00000000       0.008
   0.16239316  0.16239316  0.00000000       0.008
   0.15384615  0.15384615  0.00000000       0.008
   0.14529915  0.14529915  0.00000000       0.008
   0.13675214  0.13675214  0.00000000       0.008
   0.12820513  0.12820513  0.00000000       0.008
   0.11965812  0.11965812  0.00000000       0.008
   0.11111111  0.11111111  0.00000000       0.008
   0.10256410  0.10256410  0.00000000       0.008
   0.09401709  0.09401709  0.00000000       0.008
   0.08547009  0.08547009  0.00000000       0.008
   0.07692308  0.07692308  0.00000000       0.008
   0.06837607  0.06837607  0.00000000       0.008
   0.05982906  0.05982906  0.00000000       0.008
   0.05128205  0.05128205  0.00000000       0.008
   0.04273504  0.04273504  0.00000000       0.008
   0.03418803  0.03418803  0.00000000       0.008
   0.02564103  0.02564103  0.00000000       0.008
   0.01709402  0.01709402  0.00000000       0.008
   0.00854701  0.00854701  0.00000000       0.008
  -0.00000000 -0.00000000  0.00000000       0.008
 
 position of ions in fractional coordinates (direct lattice) 
   0.09323790  0.21507734  0.00000000
   0.02987225  0.27842324  0.00000000
   0.22155430  0.29967047  0.00000000
   0.22546419  0.41066788  0.00000000
   0.11446069  0.40676569  0.00000000
   0.33010592  0.51529227  0.00000000
   0.44108649  0.51918290  0.00000000
   0.52569076  0.64752190  0.00000000
   0.46234634  0.71088419  0.00000000
   0.33403328  0.62629691  0.00000000
   0.65046743  0.70832902  0.00000000
   0.71463114  0.83666615  0.00000000
   0.65149062  0.89982958  0.00000000
   0.52316014  0.83565563  0.00000000
   0.84092768  0.89981635  0.00000000
   0.71464108  0.02615168  0.00000000
   0.65044886  0.09029618  0.00000000
   0.52567727  0.02632604  0.00000000
   0.46234785  0.89961191  0.00000000
   0.84095159  0.08930411  0.00000000
   0.90510895  0.21762128  0.00000000
   0.84112190  0.27840404  0.00000000
   0.71441165  0.21505990  0.00000000
   0.90410690  0.02614938  0.00000000
   0.02983407  0.89959907  0.00000000
   0.09322367  0.02631890  0.00000000
   0.11440379  0.85582304  0.00000000
   0.22541870  0.96289412  0.00000000
   0.22154718  0.07002245  0.00000000
   0.44104067  0.07002725  0.00000000
   0.33005149  0.96289679  0.00000000
   0.33400141  0.85582413  0.00000000
   0.88488419  0.40674176  0.00000000
   0.77778720  0.41065020  0.00000000
   0.67068178  0.29964917  0.00000000
   0.77777808  0.51526631  0.00000000
   0.88488394  0.62627419  0.00000000
   0.84115352  0.71086644  0.00000000
   0.71444040  0.64751346  0.00000000
   0.67068451  0.51917534  0.00000000
   0.90507590  0.83563705  0.00000000
   0.11105181  0.51555704  0.00000000
   0.33030827  0.18226997  0.00000000
   0.33032745  0.29621773  0.00000000
   0.11102446  0.74362130  0.00000000
   0.22522547  0.74361946  0.00000000
   0.22523761  0.62971980  0.00000000
   0.99710650  0.51555237  0.00000000
   0.55846892  0.29620725  0.00000000
   0.44450714  0.18226630  0.00000000
   0.44451198  0.41038839  0.00000000
   0.55846211  0.41038157  0.00000000
   0.99710557  0.62970803  0.00000000
   0.03242697  0.09030706  0.00000000
 
 position of ions in cartesian coordinates  (Angst):
  -0.18575391  2.41938826  0.00000000
  -1.42021852  3.13196135  0.00000000
   0.93156533  3.37096980  0.00000000
   0.26147370  4.61957102  0.00000000
  -1.15501748  4.57567554  0.00000000
   0.94118667  5.79648265  0.00000000
   2.35745513  5.84024795  0.00000000
   2.62288419  7.28392346  0.00000000
   1.38858881  7.99668087  0.00000000
   0.27127500  7.04516518  0.00000000
   3.84870482  7.96793795  0.00000000
   3.84864181  9.41159234  0.00000000
   2.61828645 10.12211290  0.00000000
   1.36817112  9.40022513  0.00000000
   5.07898695 10.12196401  0.00000000
   9.11269233  0.29417822  0.00000000
   7.86230470  1.01573467  0.00000000
   6.65709242  0.29613962  0.00000000
   0.16290812 10.11966428  0.00000000
  10.34320429  1.00457500  0.00000000
  10.34318841  2.44800487  0.00000000
   9.11729887  3.13174531  0.00000000
   7.88283959  2.41919212  0.00000000
  11.57369532  0.29415237  0.00000000
  -5.45496787 10.11951989  0.00000000
   1.03996123  0.29605921  0.00000000
  -4.07217904  9.62708676  0.00000000
  -3.32557440 10.83152091  0.00000000
   2.42293189  0.78767712  0.00000000
   5.27392086  0.78773113  0.00000000
  -1.96650729 10.83155099  0.00000000
  -1.21981338  9.62709898  0.00000000
   8.85223612  4.57540639  0.00000000
   7.43576053  4.61937207  0.00000000
   6.76545984  3.37073015  0.00000000
   6.75620813  5.79619054  0.00000000
   7.42647002  7.04490953  0.00000000
   6.30906377  7.99648122  0.00000000
   5.07462460  7.28382845  0.00000000
   5.33977301  5.84016299  0.00000000
   6.32902902  9.40001609  0.00000000
  -1.90584582  5.79946097  0.00000000
   3.10664284  2.05034071  0.00000000
   2.36685331  3.33213012  0.00000000
  -3.38737433  8.36493809  0.00000000
  -1.90399553  8.36491743  0.00000000
  -1.16411146  7.08366894  0.00000000
   9.60322626  5.79940850  0.00000000
   5.33027079  3.33201228  0.00000000
   4.59000582  2.05029938  0.00000000
   3.10851985  4.61642700  0.00000000
   4.58867234  4.61635035  0.00000000
   8.86182546  7.08353653  0.00000000
  -0.16530633  1.01585713  0.00000000
 


--------------------------------------------------------------------------------------------------------


 k-point   1 :   0.0000 0.0000 0.0000  plane waves:   39373
 k-point   2 :   0.0128 0.0000 0.0000  plane waves:   39353
 k-point   3 :   0.0256 0.0000 0.0000  plane waves:   39355
 k-point   4 :   0.0385 0.0000 0.0000  plane waves:   39363
 k-point   5 :   0.0513 0.0000 0.0000  plane waves:   39359
 k-point   6 :   0.0641 0.0000 0.0000  plane waves:   39361
 k-point   7 :   0.0769 0.0000 0.0000  plane waves:   39349
 k-point   8 :   0.0897 0.0000 0.0000  plane waves:   39354
 k-point   9 :   0.1026 0.0000 0.0000  plane waves:   39356
 k-point  10 :   0.1154 0.0000 0.0000  plane waves:   39360
 k-point  11 :   0.1282 0.0000 0.0000  plane waves:   39352
 k-point  12 :   0.1410 0.0000 0.0000  plane waves:   39338
 k-point  13 :   0.1538 0.0000 0.0000  plane waves:   39358
 k-point  14 :   0.1667 0.0000 0.0000  plane waves:   39376
 k-point  15 :   0.1795 0.0000 0.0000  plane waves:   39386
 k-point  16 :   0.1923 0.0000 0.0000  plane waves:   39390
 k-point  17 :   0.2051 0.0000 0.0000  plane waves:   39404
 k-point  18 :   0.2179 0.0000 0.0000  plane waves:   39386
 k-point  19 :   0.2308 0.0000 0.0000  plane waves:   39390
 k-point  20 :   0.2436 0.0000 0.0000  plane waves:   39390
 k-point  21 :   0.2564 0.0000 0.0000  plane waves:   39384
 k-point  22 :   0.2692 0.0000 0.0000  plane waves:   39376
 k-point  23 :   0.2821 0.0000 0.0000  plane waves:   39370
 k-point  24 :   0.2949 0.0000 0.0000  plane waves:   39366
 k-point  25 :   0.3077 0.0000 0.0000  plane waves:   39372
 k-point  26 :   0.3205 0.0000 0.0000  plane waves:   39378
 k-point  27 :   0.3333 0.0000 0.0000  plane waves:   39378
 k-point  28 :   0.3462 0.0000 0.0000  plane waves:   39370
 k-point  29 :   0.3590 0.0000 0.0000  plane waves:   39362
 k-point  30 :   0.3718 0.0000 0.0000  plane waves:   39348
 k-point  31 :   0.3846 0.0000 0.0000  plane waves:   39340
 k-point  32 :   0.3974 0.0000 0.0000  plane waves:   39336
 k-point  33 :   0.4103 0.0000 0.0000  plane waves:   39348
 k-point  34 :   0.4231 0.0000 0.0000  plane waves:   39352
 k-point  35 :   0.4359 0.0000 0.0000  plane waves:   39346
 k-point  36 :   0.4487 0.0000 0.0000  plane waves:   39350
 k-point  37 :   0.4615 0.0000 0.0000  plane waves:   39366
 k-point  38 :   0.4744 0.0000 0.0000  plane waves:   39356
 k-point  39 :   0.4872 0.0000 0.0000  plane waves:   39366
 k-point  40 :   0.5000 0.0000 0.0000  plane waves:   39382
 k-point  41 :   0.5000 0.0000 0.0000  plane waves:   39382
 k-point  42 :   0.4957 0.0085 0.0000  plane waves:   39350
 k-point  43 :   0.4915 0.0171 0.0000  plane waves:   39346
 k-point  44 :   0.4872 0.0256 0.0000  plane waves:   39336
 k-point  45 :   0.4829 0.0342 0.0000  plane waves:   39332
 k-point  46 :   0.4786 0.0427 0.0000  plane waves:   39348
 k-point  47 :   0.4744 0.0513 0.0000  plane waves:   39344
 k-point  48 :   0.4701 0.0598 0.0000  plane waves:   39340
 k-point  49 :   0.4658 0.0684 0.0000  plane waves:   39344
 k-point  50 :   0.4615 0.0769 0.0000  plane waves:   39340
 k-point  51 :   0.4573 0.0855 0.0000  plane waves:   39362
 k-point  52 :   0.4530 0.0940 0.0000  plane waves:   39356
 k-point  53 :   0.4487 0.1026 0.0000  plane waves:   39356
 k-point  54 :   0.4444 0.1111 0.0000  plane waves:   39356
 k-point  55 :   0.4402 0.1197 0.0000  plane waves:   39356
 k-point  56 :   0.4359 0.1282 0.0000  plane waves:   39364
 k-point  57 :   0.4316 0.1368 0.0000  plane waves:   39360
 k-point  58 :   0.4274 0.1453 0.0000  plane waves:   39356
 k-point  59 :   0.4231 0.1538 0.0000  plane waves:   39352
 k-point  60 :   0.4188 0.1624 0.0000  plane waves:   39352
 k-point  61 :   0.4145 0.1709 0.0000  plane waves:   39346
 k-point  62 :   0.4103 0.1795 0.0000  plane waves:   39336
 k-point  63 :   0.4060 0.1880 0.0000  plane waves:   39324
 k-point  64 :   0.4017 0.1966 0.0000  plane waves:   39338
 k-point  65 :   0.3974 0.2051 0.0000  plane waves:   39350
 k-point  66 :   0.3932 0.2137 0.0000  plane waves:   39350
 k-point  67 :   0.3889 0.2222 0.0000  plane waves:   39334
 k-point  68 :   0.3846 0.2308 0.0000  plane waves:   39340
 k-point  69 :   0.3803 0.2393 0.0000  plane waves:   39342
 k-point  70 :   0.3761 0.2479 0.0000  plane waves:   39332
 k-point  71 :   0.3718 0.2564 0.0000  plane waves:   39340
 k-point  72 :   0.3675 0.2650 0.0000  plane waves:   39338
 k-point  73 :   0.3632 0.2735 0.0000  plane waves:   39336
 k-point  74 :   0.3590 0.2821 0.0000  plane waves:   39344
 k-point  75 :   0.3547 0.2906 0.0000  plane waves:   39328
 k-point  76 :   0.3504 0.2991 0.0000  plane waves:   39336
 k-point  77 :   0.3462 0.3077 0.0000  plane waves:   39328
 k-point  78 :   0.3419 0.3162 0.0000  plane waves:   39340
 k-point  79 :   0.3376 0.3248 0.0000  plane waves:   39336
 k-point  80 :   0.3333 0.3333 0.0000  plane waves:   39348
 k-point  81 :   0.3333 0.3333 0.0000  plane waves:   39348
 k-point  82 :   0.3248 0.3248 0.0000  plane waves:   39340
 k-point  83 :   0.3162 0.3162 0.0000  plane waves:   39312
 k-point  84 :   0.3077 0.3077 0.0000  plane waves:   39332
 k-point  85 :   0.2991 0.2991 0.0000  plane waves:   39332
 k-point  86 :   0.2906 0.2906 0.0000  plane waves:   39350
 k-point  87 :   0.2821 0.2821 0.0000  plane waves:   39366
 k-point  88 :   0.2735 0.2735 0.0000  plane waves:   39358
 k-point  89 :   0.2650 0.2650 0.0000  plane waves:   39356
 k-point  90 :   0.2564 0.2564 0.0000  plane waves:   39356
 k-point  91 :   0.2479 0.2479 0.0000  plane waves:   39348
 k-point  92 :   0.2393 0.2393 0.0000  plane waves:   39320
 k-point  93 :   0.2308 0.2308 0.0000  plane waves:   39324
 k-point  94 :   0.2222 0.2222 0.0000  plane waves:   39326
 k-point  95 :   0.2137 0.2137 0.0000  plane waves:   39326
 k-point  96 :   0.2051 0.2051 0.0000  plane waves:   39348
 k-point  97 :   0.1966 0.1966 0.0000  plane waves:   39354
 k-point  98 :   0.1880 0.1880 0.0000  plane waves:   39358
 k-point  99 :   0.1795 0.1795 0.0000  plane waves:   39364
 k-point 100 :   0.1709 0.1709 0.0000  plane waves:   39376
 k-point 101 :   0.1624 0.1624 0.0000  plane waves:   39380
 k-point 102 :   0.1538 0.1538 0.0000  plane waves:   39374
 k-point 103 :   0.1453 0.1453 0.0000  plane waves:   39384
 k-point 104 :   0.1368 0.1368 0.0000  plane waves:   39358
 k-point 105 :   0.1282 0.1282 0.0000  plane waves:   39360
 k-point 106 :   0.1197 0.1197 0.0000  plane waves:   39368
 k-point 107 :   0.1111 0.1111 0.0000  plane waves:   39378
 k-point 108 :   0.1026 0.1026 0.0000  plane waves:   39348
 k-point 109 :   0.0940 0.0940 0.0000  plane waves:   39344
 k-point 110 :   0.0855 0.0855 0.0000  plane waves:   39332
 k-point 111 :   0.0769 0.0769 0.0000  plane waves:   39348
 k-point 112 :   0.0684 0.0684 0.0000  plane waves:   39341
 k-point 113 :   0.0598 0.0598 0.0000  plane waves:   39351
 k-point 114 :   0.0513 0.0513 0.0000  plane waves:   39345
 k-point 115 :   0.0427 0.0427 0.0000  plane waves:   39349
 k-point 116 :   0.0342 0.0342 0.0000  plane waves:   39363
 k-point 117 :   0.0256 0.0256 0.0000  plane waves:   39363
 k-point 118 :   0.0171 0.0171 0.0000  plane waves:   39355
 k-point 119 :   0.0085 0.0085 0.0000  plane waves:   39355
 k-point 120 :  -0.0000-0.0000 0.0000  plane waves:   39373

 maximum and minimum number of plane-waves per node :      1002      969

 maximum number of plane-waves:     39404
 maximum index in each direction: 
   IXMAX=   24   IYMAX=   24   IZMAX=   18
   IXMIN=  -24   IYMIN=  -24   IZMIN=  -18


 real space projection operators:
  total allocation   :       8230.81 KBytes
  max/ min on nodes  :        308.69        140.25


 parallel 3D FFT for wavefunctions:
    minimum data exchange during FFTs selected (reduces bandwidth)
 parallel 3D FFT for charge:
    minimum data exchange during FFTs selected (reduces bandwidth)


 total amount of memory used by VASP MPI-rank0   325618. kBytes
=======================================================================

   base      :      30000. kBytes
   nonlr-proj:       2610. kBytes
   fftplans  :      23610. kBytes
   grid      :       8534. kBytes
   one-center:          6. kBytes
   wavefun   :     260858. kBytes
 
     INWAV:  cpu time    0.0001: real time    0.0001
 initial charge density was supplied:
 number of electron     216.0000000 magnetization 
 keeping initial charge density in first step


--------------------------------------------------------------------------------------------------------


 Maximum index for non-local projection operator          205
 Maximum index for augmentation-charges         1486 (set IRDMAX)


--------------------------------------------------------------------------------------------------------


 First call to EWALD:  gamma=   0.156
 Maximum number of real-space cells 3x 3x 3
 Maximum number of reciprocal cells 3x 3x 2

    FEWALD:  cpu time    0.0024: real time    0.0025


--------------------------------------- Iteration      1(   1)  ---------------------------------------


    POTLOK:  cpu time    0.1024: real time    0.1189
    SETDIJ:  cpu time    0.0888: real time    0.0892
    EDDIAG:  cpu time   16.7615: real time   16.9818
  RMM-DIIS:  cpu time   30.8641: real time   31.3868
    ORTHCH:  cpu time    0.6665: real time    0.6682
       DOS:  cpu time    0.0464: real time    0.0465
    --------------------------------------------
      LOOP:  cpu time   48.5296: real time   49.2913

 eigenvalue-minimisations  : 16320
 total energy-change (2. order) : 0.2543473E+04  (-0.6580505E+04)
 number of electron     216.0000000 magnetization 
 augmentation part      216.0000000 magnetization 

 Free energy of the ion-electron system (eV)
  ---------------------------------------------------
  alpha Z        PSCENC =       163.94122448
  Ewald energy   TEWEN  =      9864.28454870
  -Hartree energ DENC   =    -17117.71829612
  -exchange      EXHF   =         0.00000000
  -V(xc)+E(xc)   XCENC  =       773.30755732
  PAW double counting   =     21755.40548657   -21792.05390279
  entropy T*S    EENTRO =        -0.00919728
  eigenvalues    EBANDS =       950.27493500
  atomic energy  EATOM  =      7946.04023886
  Solvation  Ediel_sol  =         0.00000000
  ---------------------------------------------------
  free energy    TOTEN  =      2543.47259474 eV

  energy without entropy =     2543.48179202  energy(sigma->0) =     2543.47719338


--------------------------------------------------------------------------------------------------------




--------------------------------------- Iteration      1(   2)  ---------------------------------------


    EDDIAG:  cpu time   10.1372: real time   10.1746
  RMM-DIIS:  cpu time   29.8244: real time   29.9147
    ORTHCH:  cpu time    0.6666: real time    0.6682
       DOS:  cpu time    0.0502: real time    0.0503
    --------------------------------------------
      LOOP:  cpu time   40.6784: real time   40.8078

 eigenvalue-minimisations  : 16320
 total energy-change (2. order) :-0.1945851E+04  (-0.2204566E+04)
 number of electron     216.0000000 magnetization 
 augmentation part      216.0000000 magnetization 

 Free energy of the ion-electron system (eV)
  ---------------------------------------------------
  alpha Z        PSCENC =       163.94122448
  Ewald energy   TEWEN  =      9864.28454870
  -Hartree energ DENC   =    -17117.71829612
  -exchange      EXHF   =         0.00000000
  -V(xc)+E(xc)   XCENC  =       773.30755732
  PAW double counting   =     21755.40548657   -21792.05390279
  entropy T*S    EENTRO =        -0.01302428
  eigenvalues    EBANDS =      -995.57214052
  atomic energy  EATOM  =      7946.04023886
  Solvation  Ediel_sol  =         0.00000000
  ---------------------------------------------------
  free energy    TOTEN  =       597.62169222 eV

  energy without entropy =      597.63471650  energy(sigma->0) =      597.62820436


--------------------------------------------------------------------------------------------------------




--------------------------------------- Iteration      1(   3)  ---------------------------------------


    EDDIAG:  cpu time    9.8028: real time    9.8357
  RMM-DIIS:  cpu time   31.8975: real time   32.6171
    ORTHCH:  cpu time    0.6690: real time    0.6707
       DOS:  cpu time    0.0540: real time    0.0542
    --------------------------------------------
      LOOP:  cpu time   42.4233: real time   43.1776

 eigenvalue-minimisations  : 16320
 total energy-change (2. order) :-0.5999337E+03  (-0.9448662E+03)
 number of electron     216.0000000 magnetization 
 augmentation part      216.0000000 magnetization 

 Free energy of the ion-electron system (eV)
  ---------------------------------------------------
  alpha Z        PSCENC =       163.94122448
  Ewald energy   TEWEN  =      9864.28454870
  -Hartree energ DENC   =    -17117.71829612
  -exchange      EXHF   =         0.00000000
  -V(xc)+E(xc)   XCENC  =       773.30755732
  PAW double counting   =     21755.40548657   -21792.05390279
  entropy T*S    EENTRO =        -0.02327221
  eigenvalues    EBANDS =     -1595.49554318
  atomic energy  EATOM  =      7946.04023886
  Solvation  Ediel_sol  =         0.00000000
  ---------------------------------------------------
  free energy    TOTEN  =        -2.31195836 eV

  energy without entropy =       -2.28868615  energy(sigma->0) =       -2.30032226


--------------------------------------------------------------------------------------------------------




--------------------------------------- Iteration      1(   4)  ---------------------------------------


    EDDIAG:  cpu time    9.7774: real time    9.8092
  RMM-DIIS:  cpu time   29.8427: real time   29.9258
    ORTHCH:  cpu time    0.6684: real time    0.6705
       DOS:  cpu time    0.0547: real time    0.0549
    --------------------------------------------
      LOOP:  cpu time   40.3433: real time   40.4604

 eigenvalue-minimisations  : 16320
 total energy-change (2. order) :-0.4082154E+03  (-0.4434376E+03)
 number of electron     216.0000000 magnetization 
 augmentation part      216.0000000 magnetization 

 Free energy of the ion-electron system (eV)
  ---------------------------------------------------
  alpha Z        PSCENC =       163.94122448
  Ewald energy   TEWEN  =      9864.28454870
  -Hartree energ DENC   =    -17117.71829612
  -exchange      EXHF   =         0.00000000
  -V(xc)+E(xc)   XCENC  =       773.30755732
  PAW double counting   =     21755.40548657   -21792.05390279
  entropy T*S    EENTRO =        -0.01290223
  eigenvalues    EBANDS =     -2003.72126357
  atomic energy  EATOM  =      7946.04023886
  Solvation  Ediel_sol  =         0.00000000
  ---------------------------------------------------
  free energy    TOTEN  =      -410.52730877 eV

  energy without entropy =     -410.51440654  energy(sigma->0) =     -410.52085766


--------------------------------------------------------------------------------------------------------




--------------------------------------- Iteration      1(   5)  ---------------------------------------


    EDDIAG:  cpu time   10.1220: real time   10.1719
  RMM-DIIS:  cpu time   31.7894: real time   32.4697
    ORTHCH:  cpu time    0.6678: real time    0.6694
       DOS:  cpu time    0.0552: real time    0.0553
    --------------------------------------------
      LOOP:  cpu time   42.6343: real time   43.3663

 eigenvalue-minimisations  : 16320
 total energy-change (2. order) :-0.2014629E+03  (-0.1796009E+03)
 number of electron     216.0000000 magnetization 
 augmentation part      216.0000000 magnetization 

 Free energy of the ion-electron system (eV)
  ---------------------------------------------------
  alpha Z        PSCENC =       163.94122448
  Ewald energy   TEWEN  =      9864.28454870
  -Hartree energ DENC   =    -17117.71829612
  -exchange      EXHF   =         0.00000000
  -V(xc)+E(xc)   XCENC  =       773.30755732
  PAW double counting   =     21755.40548657   -21792.05390279
  entropy T*S    EENTRO =        -0.01254386
  eigenvalues    EBANDS =     -2205.18456186
  atomic energy  EATOM  =      7946.04023886
  Solvation  Ediel_sol  =         0.00000000
  ---------------------------------------------------
  free energy    TOTEN  =      -611.99024870 eV

  energy without entropy =     -611.97770483  energy(sigma->0) =     -611.98397676


--------------------------------------------------------------------------------------------------------




--------------------------------------- Iteration      1(   6)  ---------------------------------------


    EDDIAG:  cpu time   10.0247: real time   10.0636
  RMM-DIIS:  cpu time   30.7171: real time   31.0964
    ORTHCH:  cpu time    0.6692: real time    0.6708
       DOS:  cpu time    0.0538: real time    0.0539
    --------------------------------------------
      LOOP:  cpu time   41.4647: real time   41.8847

 eigenvalue-minimisations  : 16320
 total energy-change (2. order) :-0.1016530E+03  (-0.7931169E+02)
 number of electron     216.0000000 magnetization 
 augmentation part      216.0000000 magnetization 

 Free energy of the ion-electron system (eV)
  ---------------------------------------------------
  alpha Z        PSCENC =       163.94122448
  Ewald energy   TEWEN  =      9864.28454870
  -Hartree energ DENC   =    -17117.71829612
  -exchange      EXHF   =         0.00000000
  -V(xc)+E(xc)   XCENC  =       773.30755732
  PAW double counting   =     21755.40548657   -21792.05390279
  entropy T*S    EENTRO =        -0.00335816
  eigenvalues    EBANDS =     -2306.84677247
  atomic energy  EATOM  =      7946.04023886
  Solvation  Ediel_sol  =         0.00000000
  ---------------------------------------------------
  free energy    TOTEN  =      -713.64327360 eV

  energy without entropy =     -713.63991544  energy(sigma->0) =     -713.64159452


--------------------------------------------------------------------------------------------------------




--------------------------------------- Iteration      1(   7)  ---------------------------------------


    EDDIAG:  cpu time   10.0032: real time   10.0359
  RMM-DIIS:  cpu time   31.9186: real time   32.4999
    ORTHCH:  cpu time    0.6660: real time    0.6676
       DOS:  cpu time    0.0551: real time    0.0553
    --------------------------------------------
      LOOP:  cpu time   42.6429: real time   43.2586

 eigenvalue-minimisations  : 16320
 total energy-change (2. order) :-0.3280199E+02  (-0.3016043E+02)
 number of electron     216.0000000 magnetization 
 augmentation part      216.0000000 magnetization 

 Free energy of the ion-electron system (eV)
  ---------------------------------------------------
  alpha Z        PSCENC =       163.94122448
  Ewald energy   TEWEN  =      9864.28454870
  -Hartree energ DENC   =    -17117.71829612
  -exchange      EXHF   =         0.00000000
  -V(xc)+E(xc)   XCENC  =       773.30755732
  PAW double counting   =     21755.40548657   -21792.05390279
  entropy T*S    EENTRO =        -0.00517077
  eigenvalues    EBANDS =     -2339.64694679
  atomic energy  EATOM  =      7946.04023886
  Solvation  Ediel_sol  =         0.00000000
  ---------------------------------------------------
  free energy    TOTEN  =      -746.44526054 eV

  energy without entropy =     -746.44008976  energy(sigma->0) =     -746.44267515


--------------------------------------------------------------------------------------------------------




--------------------------------------- Iteration      1(   8)  ---------------------------------------


    EDDIAG:  cpu time   10.0728: real time   10.1185
  RMM-DIIS:  cpu time   29.9428: real time   30.0329
    ORTHCH:  cpu time    0.6680: real time    0.6696
       DOS:  cpu time    0.0544: real time    0.0545
    --------------------------------------------
      LOOP:  cpu time   40.7381: real time   40.8756

 eigenvalue-minimisations  : 16320
 total energy-change (2. order) :-0.1692103E+02  (-0.1326459E+02)
 number of electron     216.0000000 magnetization 
 augmentation part      216.0000000 magnetization 

 Free energy of the ion-electron system (eV)
  ---------------------------------------------------
  alpha Z        PSCENC =       163.94122448
  Ewald energy   TEWEN  =      9864.28454870
  -Hartree energ DENC   =    -17117.71829612
  -exchange      EXHF   =         0.00000000
  -V(xc)+E(xc)   XCENC  =       773.30755732
  PAW double counting   =     21755.40548657   -21792.05390279
  entropy T*S    EENTRO =        -0.00402068
  eigenvalues    EBANDS =     -2356.56912369
  atomic energy  EATOM  =      7946.04023886
  Solvation  Ediel_sol  =         0.00000000
  ---------------------------------------------------
  free energy    TOTEN  =      -763.36628735 eV

  energy without entropy =     -763.36226667  energy(sigma->0) =     -763.36427701


--------------------------------------------------------------------------------------------------------




--------------------------------------- Iteration      1(   9)  ---------------------------------------


    EDDIAG:  cpu time    9.7540: real time    9.7869
  RMM-DIIS:  cpu time   72.5647: real time   73.3929
    ORTHCH:  cpu time    0.6657: real time    0.6673
       DOS:  cpu time    0.0520: real time    0.0521
    --------------------------------------------
      LOOP:  cpu time   83.0364: real time   83.8993

 eigenvalue-minimisations  : 44274
 total energy-change (2. order) :-0.1074375E+02  (-0.1015764E+02)
 number of electron     216.0000000 magnetization 
 augmentation part      216.0000000 magnetization 

 Free energy of the ion-electron system (eV)
  ---------------------------------------------------
  alpha Z        PSCENC =       163.94122448
  Ewald energy   TEWEN  =      9864.28454870
  -Hartree energ DENC   =    -17117.71829612
  -exchange      EXHF   =         0.00000000
  -V(xc)+E(xc)   XCENC  =       773.30755732
  PAW double counting   =     21755.40548657   -21792.05390279
  entropy T*S    EENTRO =        -0.00063729
  eigenvalues    EBANDS =     -2367.31626164
  atomic energy  EATOM  =      7946.04023886
  Solvation  Ediel_sol  =         0.00000000
  ---------------------------------------------------
  free energy    TOTEN  =      -774.11004191 eV

  energy without entropy =     -774.10940461  energy(sigma->0) =     -774.10972326


--------------------------------------------------------------------------------------------------------




--------------------------------------- Iteration      1(  10)  ---------------------------------------


    EDDIAG:  cpu time   10.0138: real time   10.0489
  RMM-DIIS:  cpu time   76.0742: real time   76.7761
    ORTHCH:  cpu time    0.6722: real time    0.6738
       DOS:  cpu time    0.0475: real time    0.0476
    --------------------------------------------
      LOOP:  cpu time   86.8078: real time   87.5465

 eigenvalue-minimisations  : 46796
 total energy-change (2. order) :-0.1635883E+01  (-0.1281003E+01)
 number of electron     216.0000000 magnetization 
 augmentation part      216.0000000 magnetization 

 Free energy of the ion-electron system (eV)
  ---------------------------------------------------
  alpha Z        PSCENC =       163.94122448
  Ewald energy   TEWEN  =      9864.28454870
  -Hartree energ DENC   =    -17117.71829612
  -exchange      EXHF   =         0.00000000
  -V(xc)+E(xc)   XCENC  =       773.30755732
  PAW double counting   =     21755.40548657   -21792.05390279
  entropy T*S    EENTRO =        -0.00000198
  eigenvalues    EBANDS =     -2368.95278014
  atomic energy  EATOM  =      7946.04023886
  Solvation  Ediel_sol  =         0.00000000
  ---------------------------------------------------
  free energy    TOTEN  =      -775.74592510 eV

  energy without entropy =     -775.74592312  energy(sigma->0) =     -775.74592411


--------------------------------------------------------------------------------------------------------




--------------------------------------- Iteration      1(  11)  ---------------------------------------


    EDDIAG:  cpu time   10.0061: real time   10.0379
  RMM-DIIS:  cpu time   82.0665: real time   83.8423
    ORTHCH:  cpu time    0.6662: real time    0.6678
       DOS:  cpu time    0.0482: real time    0.0483
    --------------------------------------------
      LOOP:  cpu time   92.7871: real time   94.5963

 eigenvalue-minimisations  : 50475
 total energy-change (2. order) :-0.2134050E+00  (-0.1593600E+00)
 number of electron     216.0000000 magnetization 
 augmentation part      216.0000000 magnetization 

 Free energy of the ion-electron system (eV)
  ---------------------------------------------------
  alpha Z        PSCENC =       163.94122448
  Ewald energy   TEWEN  =      9864.28454870
  -Hartree energ DENC   =    -17117.71829612
  -exchange      EXHF   =         0.00000000
  -V(xc)+E(xc)   XCENC  =       773.30755732
  PAW double counting   =     21755.40548657   -21792.05390279
  entropy T*S    EENTRO =        -0.00000221
  eigenvalues    EBANDS =     -2369.16618492
  atomic energy  EATOM  =      7946.04023886
  Solvation  Ediel_sol  =         0.00000000
  ---------------------------------------------------
  free energy    TOTEN  =      -775.95933011 eV

  energy without entropy =     -775.95932790  energy(sigma->0) =     -775.95932900


--------------------------------------------------------------------------------------------------------




--------------------------------------- Iteration      1(  12)  ---------------------------------------


    EDDIAG:  cpu time   10.0069: real time   10.0413
  RMM-DIIS:  cpu time   82.3609: real time   83.2217
    ORTHCH:  cpu time    0.6705: real time    0.6721
       DOS:  cpu time    0.0473: real time    0.0474
    --------------------------------------------
      LOOP:  cpu time   93.0856: real time   93.9825

 eigenvalue-minimisations  : 50649
 total energy-change (2. order) :-0.2523964E-01  (-0.2039749E-01)
 number of electron     216.0000000 magnetization 
 augmentation part      216.0000000 magnetization 

 Free energy of the ion-electron system (eV)
  ---------------------------------------------------
  alpha Z        PSCENC =       163.94122448
  Ewald energy   TEWEN  =      9864.28454870
  -Hartree energ DENC   =    -17117.71829612
  -exchange      EXHF   =         0.00000000
  -V(xc)+E(xc)   XCENC  =       773.30755732
  PAW double counting   =     21755.40548657   -21792.05390279
  entropy T*S    EENTRO =        -0.00000235
  eigenvalues    EBANDS =     -2369.19142442
  atomic energy  EATOM  =      7946.04023886
  Solvation  Ediel_sol  =         0.00000000
  ---------------------------------------------------
  free energy    TOTEN  =      -775.98456974 eV

  energy without entropy =     -775.98456740  energy(sigma->0) =     -775.98456857


--------------------------------------------------------------------------------------------------------




--------------------------------------- Iteration      1(  13)  ---------------------------------------


    EDDIAG:  cpu time    9.7619: real time    9.7960
  RMM-DIIS:  cpu time   78.6717: real time   79.5419
    ORTHCH:  cpu time    0.6690: real time    0.6706
       DOS:  cpu time    0.0437: real time    0.0438
    --------------------------------------------
      LOOP:  cpu time   89.1463: real time   90.0523

 eigenvalue-minimisations  : 48232
 total energy-change (2. order) :-0.4575780E-02  (-0.3756801E-02)
 number of electron     216.0000000 magnetization 
 augmentation part      216.0000000 magnetization 

 Free energy of the ion-electron system (eV)
  ---------------------------------------------------
  alpha Z        PSCENC =       163.94122448
  Ewald energy   TEWEN  =      9864.28454870
  -Hartree energ DENC   =    -17117.71829612
  -exchange      EXHF   =         0.00000000
  -V(xc)+E(xc)   XCENC  =       773.30755732
  PAW double counting   =     21755.40548657   -21792.05390279
  entropy T*S    EENTRO =        -0.00000237
  eigenvalues    EBANDS =     -2369.19600018
  atomic energy  EATOM  =      7946.04023886
  Solvation  Ediel_sol  =         0.00000000
  ---------------------------------------------------
  free energy    TOTEN  =      -775.98914552 eV

  energy without entropy =     -775.98914315  energy(sigma->0) =     -775.98914434


--------------------------------------------------------------------------------------------------------




--------------------------------------- Iteration      1(  14)  ---------------------------------------


    EDDIAG:  cpu time    9.7697: real time    9.8017
  RMM-DIIS:  cpu time   82.9658: real time   83.8457
    ORTHCH:  cpu time    0.6688: real time    0.6705
       DOS:  cpu time    0.0481: real time    0.0482
    --------------------------------------------
      LOOP:  cpu time   93.4524: real time   94.3662

 eigenvalue-minimisations  : 50573
 total energy-change (2. order) :-0.1008482E-02  (-0.8797131E-03)
 number of electron     216.0000000 magnetization 
 augmentation part      216.0000000 magnetization 

 Free energy of the ion-electron system (eV)
  ---------------------------------------------------
  alpha Z        PSCENC =       163.94122448
  Ewald energy   TEWEN  =      9864.28454870
  -Hartree energ DENC   =    -17117.71829612
  -exchange      EXHF   =         0.00000000
  -V(xc)+E(xc)   XCENC  =       773.30755732
  PAW double counting   =     21755.40548657   -21792.05390279
  entropy T*S    EENTRO =        -0.00000237
  eigenvalues    EBANDS =     -2369.19700866
  atomic energy  EATOM  =      7946.04023886
  Solvation  Ediel_sol  =         0.00000000
  ---------------------------------------------------
  free energy    TOTEN  =      -775.99015401 eV

  energy without entropy =     -775.99015163  energy(sigma->0) =     -775.99015282


--------------------------------------------------------------------------------------------------------




--------------------------------------- Iteration      1(  15)  ---------------------------------------


    EDDIAG:  cpu time   10.0306: real time   10.0611
  RMM-DIIS:  cpu time   78.4514: real time   79.3174
    ORTHCH:  cpu time    0.6726: real time    0.6766
       DOS:  cpu time    0.0481: real time    0.0482
    --------------------------------------------
      LOOP:  cpu time   89.2027: real time   90.1034

 eigenvalue-minimisations  : 48179
 total energy-change (2. order) :-0.2245499E-03  (-0.1992560E-03)
 number of electron     216.0000000 magnetization 
 augmentation part      216.0000000 magnetization 

 Free energy of the ion-electron system (eV)
  ---------------------------------------------------
  alpha Z        PSCENC =       163.94122448
  Ewald energy   TEWEN  =      9864.28454870
  -Hartree energ DENC   =    -17117.71829612
  -exchange      EXHF   =         0.00000000
  -V(xc)+E(xc)   XCENC  =       773.30755732
  PAW double counting   =     21755.40548657   -21792.05390279
  entropy T*S    EENTRO =        -0.00000238
  eigenvalues    EBANDS =     -2369.19723321
  atomic energy  EATOM  =      7946.04023886
  Solvation  Ediel_sol  =         0.00000000
  ---------------------------------------------------
  free energy    TOTEN  =      -775.99037856 eV

  energy without entropy =     -775.99037618  energy(sigma->0) =     -775.99037737


--------------------------------------------------------------------------------------------------------




--------------------------------------- Iteration      1(  16)  ---------------------------------------


    EDDIAG:  cpu time   10.0362: real time   10.1366
  RMM-DIIS:  cpu time   81.5418: real time   82.2919
    ORTHCH:  cpu time    0.6669: real time    0.6694
       DOS:  cpu time    0.0493: real time    0.0494
    --------------------------------------------
      LOOP:  cpu time   92.2942: real time   93.1473

 eigenvalue-minimisations  : 50191
 total energy-change (2. order) :-0.5171173E-04  (-0.4715796E-04)
 number of electron     216.0000000 magnetization 
 augmentation part      216.0000000 magnetization 

 Free energy of the ion-electron system (eV)
  ---------------------------------------------------
  alpha Z        PSCENC =       163.94122448
  Ewald energy   TEWEN  =      9864.28454870
  -Hartree energ DENC   =    -17117.71829612
  -exchange      EXHF   =         0.00000000
  -V(xc)+E(xc)   XCENC  =       773.30755732
  PAW double counting   =     21755.40548657   -21792.05390279
  entropy T*S    EENTRO =        -0.00000238
  eigenvalues    EBANDS =     -2369.19728492
  atomic energy  EATOM  =      7946.04023886
  Solvation  Ediel_sol  =         0.00000000
  ---------------------------------------------------
  free energy    TOTEN  =      -775.99043027 eV

  energy without entropy =     -775.99042789  energy(sigma->0) =     -775.99042908


--------------------------------------------------------------------------------------------------------




--------------------------------------- Iteration      1(  17)  ---------------------------------------


    EDDIAG:  cpu time   10.0195: real time   10.0534
  RMM-DIIS:  cpu time   69.8041: real time   70.7676
    ORTHCH:  cpu time    0.6702: real time    0.6718
       DOS:  cpu time    0.0470: real time    0.0471
    --------------------------------------------
      LOOP:  cpu time   80.5408: real time   81.5399

 eigenvalue-minimisations  : 41346
 total energy-change (2. order) :-0.1140826E-04  (-0.1053939E-04)
 number of electron     216.0000000 magnetization 
 augmentation part      216.0000000 magnetization 

 Free energy of the ion-electron system (eV)
  ---------------------------------------------------
  alpha Z        PSCENC =       163.94122448
  Ewald energy   TEWEN  =      9864.28454870
  -Hartree energ DENC   =    -17117.71829612
  -exchange      EXHF   =         0.00000000
  -V(xc)+E(xc)   XCENC  =       773.30755732
  PAW double counting   =     21755.40548657   -21792.05390279
  entropy T*S    EENTRO =        -0.00000237
  eigenvalues    EBANDS =     -2369.19729633
  atomic energy  EATOM  =      7946.04023886
  Solvation  Ediel_sol  =         0.00000000
  ---------------------------------------------------
  free energy    TOTEN  =      -775.99044168 eV

  energy without entropy =     -775.99043930  energy(sigma->0) =     -775.99044049


--------------------------------------------------------------------------------------------------------




--------------------------------------- Iteration      1(  18)  ---------------------------------------


    EDDIAG:  cpu time    9.8114: real time    9.8511
  RMM-DIIS:  cpu time   58.8306: real time   59.6935
    ORTHCH:  cpu time    0.6717: real time    0.6733
       DOS:  cpu time    0.0485: real time    0.0486
    --------------------------------------------
      LOOP:  cpu time   69.3622: real time   70.2665

 eigenvalue-minimisations  : 34665
 total energy-change (2. order) :-0.2544723E-05  (-0.2383361E-05)
 number of electron     216.0000000 magnetization 
 augmentation part      216.0000000 magnetization 

 Free energy of the ion-electron system (eV)
  ---------------------------------------------------
  alpha Z        PSCENC =       163.94122448
  Ewald energy   TEWEN  =      9864.28454870
  -Hartree energ DENC   =    -17117.71829612
  -exchange      EXHF   =         0.00000000
  -V(xc)+E(xc)   XCENC  =       773.30755732
  PAW double counting   =     21755.40548657   -21792.05390279
  entropy T*S    EENTRO =        -0.00000237
  eigenvalues    EBANDS =     -2369.19729887
  atomic energy  EATOM  =      7946.04023886
  Solvation  Ediel_sol  =         0.00000000
  ---------------------------------------------------
  free energy    TOTEN  =      -775.99044422 eV

  energy without entropy =     -775.99044185  energy(sigma->0) =     -775.99044303


--------------------------------------------------------------------------------------------------------




--------------------------------------- Iteration      1(  19)  ---------------------------------------


    EDDIAG:  cpu time   10.0375: real time   10.0922
  RMM-DIIS:  cpu time   53.7925: real time   54.7187
    ORTHCH:  cpu time    0.6686: real time    0.6702
       DOS:  cpu time    0.0487: real time    0.0488
    --------------------------------------------
      LOOP:  cpu time   64.5473: real time   65.5299

 eigenvalue-minimisations  : 31087
 total energy-change (2. order) :-0.5015700E-06  (-0.4712065E-06)
 number of electron     216.0000000 magnetization 
 augmentation part      216.0000000 magnetization 

 Free energy of the ion-electron system (eV)
  ---------------------------------------------------
  alpha Z        PSCENC =       163.94122448
  Ewald energy   TEWEN  =      9864.28454870
  -Hartree energ DENC   =    -17117.71829612
  -exchange      EXHF   =         0.00000000
  -V(xc)+E(xc)   XCENC  =       773.30755732
  PAW double counting   =     21755.40548657   -21792.05390279
  entropy T*S    EENTRO =        -0.00000237
[...]
   45        0.961   2.198   0.000   3.158
   46        0.903   1.993   0.000   2.897
   47        0.570   0.524   0.000   1.093
   48        0.921   2.121   0.000   3.042
   49        0.856   1.667   0.000   2.524
   50        0.710   1.094   0.000   1.804
   51        0.973   2.357   0.000   3.330
   52        0.809   1.542   0.000   2.351
   53        0.980   2.432   0.000   3.412
   54        0.958   2.346   0.000   3.304
--------------------------------------------------
tot         46.559  97.694   0.000 144.254
 
    CHARGE:  cpu time    4.1412: real time    4.2525
    FORLOC:  cpu time    0.0377: real time    0.0378
    FORNL :  cpu time   16.2087: real time   16.2679
    STRESS:  cpu time   48.7596: real time   48.8876
    FORCOR:  cpu time    0.1206: real time    0.1225
    FORHAR:  cpu time    0.0525: real time    0.0527
    OFIELD:  cpu time    0.0005: real time    0.0005

 ---------------------------------------------------------------------------------------------

         DFTD3 V3.0 Rev 1        
 IVDW         = 12
 DF pbe       
 parameters
 VDW_S6       =    1.0000
 VDW_S8       =    0.7875
 VDW_A1       =    0.4289
 VDW_A2       =    4.4407
 k1-k3        =   16.0000    1.3333   -4.0000
 VDW_RADIUS   =   50.2022 A
 VDW_CNRADIUS =   21.1671 A
 Edisp (eV)   -4.62489

 E6    (eV) :    -3.1887
 E8    (eV) :    -1.4362
 % E8        : 31.05
    FORVDW:  cpu time    0.2447: real time    0.2514

  FORCE on cell =-STRESS in cart. coord.  units (eV):
  Direction    XX          YY          ZZ          XY          YZ          ZX
  --------------------------------------------------------------------------------------
  Alpha Z   163.94122   163.94122   163.94122
  Ewald   16969.54188 16969.75284-24075.02889     0.00743    -0.00000     0.00000
  Hartree 16640.33902 16817.98711-16030.87554   133.80436    -0.00000    -0.00000
  E(xc)    -844.66097  -845.86259  -863.18149    -2.13127     0.00000     0.00000
  Local  -35969.63151-35955.16645 37450.80251    18.24564    -0.00000    -0.00000
  n-local  -213.90339  -204.82485  -233.02402     7.63191     0.00000    -0.00000
  augment   -19.98409   -21.75280   -18.00735    -1.55109     0.00000    -0.00000
  Kinetic  3434.75391  3402.36360  3936.38132   -39.43546    -0.00000     0.00000
  Fock        0.00000     0.00000     0.00000     0.00000     0.00000     0.00000
  vdW        -0.34541    -0.34546    -0.20136     0.00001     0.00000     0.00000
  -------------------------------------------------------------------------------------
  Total     160.05066   326.09262   330.80641   116.57152     0.00000     0.00000
  in kB     175.50056   357.57076   362.73958   127.82433     0.00000     0.00000
  external pressure =      298.60 kB  Pullay stress =        0.00 kB


 VOLUME and BASIS-vectors are now :
 -----------------------------------------------------------------------------
  energy-cutoff  :      520.00
  volume of cell :     1461.13
      direct lattice vectors                 reciprocal lattice vectors
    12.989087487  0.000000000  0.000000000     0.076987702  0.044448701  0.000000000
    -6.494543380 11.248922103  0.000000000     0.000000000  0.088897406  0.000000000
     0.000000000  0.000000000 10.000000000     0.000000000  0.000000000  0.100000000

  length of vectors
    12.989087487 12.989123997 10.000000000     0.088897656  0.088897406  0.100000000


 FORCES acting on ions
    electron-ion (+dipol)            ewald-force                    non-local-force                 convergence-correction
 -----------------------------------------------------------------------------------------------
   -.680E+02 0.341E+02 -.509E-07   0.280E+02 -.148E+02 0.355E-16   -.728E+01 -.301E+01 0.132E-22   0.407E+02 -.150E+02 0.119E-04
   0.784E+02 -.667E+01 -.874E-07   -.267E+02 0.169E+02 -.704E-16   0.509E+01 0.830E+01 0.132E-22   -.432E+02 -.159E+02 0.201E-03
   -.559E+02 0.698E+02 -.161E-06   0.347E+02 -.387E+02 0.683E-16   0.211E+01 0.642E+01 -.414E-24   0.211E+02 -.325E+02 -.387E-04
   -.360E+02 0.304E+02 -.694E-07   0.667E+00 0.118E+01 -.732E-17   -.823E+01 0.158E+02 0.265E-22   0.356E+02 -.368E+02 -.422E-04
   0.136E+03 -.583E+02 0.570E-07   -.508E+02 0.106E+02 0.132E-16   0.124E+02 -.790E+01 0.265E-22   -.817E+02 0.498E+02 -.195E-04
   -.561E+02 0.105E+02 0.110E-06   -.685E+00 -.121E+01 0.435E-16   -.218E+02 -.153E+01 0.662E-23   0.601E+02 -.695E+01 0.188E-04
   -.812E+02 0.227E+01 0.217E-06   0.509E+02 -.107E+02 -.653E-18   -.127E+01 -.226E+01 0.165E-23   0.305E+02 0.606E+01 -.476E-07
   -.106E+03 0.661E+02 0.369E-07   0.268E+02 -.169E+02 0.341E-16   -.145E+02 0.730E+01 -.331E-23   0.763E+02 -.487E+02 -.496E-05
   0.455E+02 -.148E+02 0.132E-06   -.280E+02 0.148E+02 0.711E-16   0.569E+00 0.813E+00 -.662E-23   -.150E+02 -.117E+01 -.904E-05
   0.125E+03 -.681E+02 -.522E-07   -.346E+02 0.386E+02 -.162E-16   0.155E+02 -.478E+01 -.265E-22   -.922E+02 0.295E+02 -.145E-05
   0.118E+02 0.114E+02 -.189E-06   0.330E-01 -.117E+02 0.786E-16   0.273E-01 -.588E+01 -.662E-23   -.975E+01 0.263E+01 -.649E-06
   -.477E+02 0.409E+02 0.150E-06   -.136E-01 -.714E+01 0.429E-16   -.993E+00 0.728E+01 -.397E-22   0.475E+02 -.349E+02 -.112E-05
   0.827E+01 -.415E+02 -.849E-07   -.615E+01 -.350E+01 0.775E-16   -.247E+01 -.111E+02 0.000E+00   0.495E+01 0.418E+02 -.330E-05
   0.647E+02 -.516E+02 -.948E-07   -.101E+02 -.582E+01 -.157E-15   0.163E+02 -.120E+02 0.207E-24   -.591E+02 0.548E+02 -.330E-05
   0.396E+02 -.293E+01 0.111E-06   0.616E+01 -.348E+01 -.105E-15   0.502E+01 -.333E+00 0.331E-23   -.379E+02 0.121E+01 -.163E-05
   0.186E+02 -.197E+02 -.749E-07   -.617E+01 0.353E+01 0.418E-16   -.291E+01 -.217E+01 0.000E+00   -.115E+02 0.200E+02 -.130E-04
   0.226E+02 -.220E+02 0.107E-06   -.101E+02 0.580E+01 0.589E-16   -.500E+01 -.170E+01 0.662E-23   -.541E+01 0.116E+02 -.303E-04
   -.493E+02 -.311E+02 -.222E-07   -.131E+01 0.317E+02 -.487E-16   -.826E+01 0.946E+01 0.000E+00   0.530E+02 -.200E+01 -.233E-04
   -.397E+02 0.399E+02 -.633E-07   -.127E+01 -.316E+02 0.165E-15   0.116E+01 -.161E+01 -.662E-23   0.408E+02 -.124E+02 -.311E-05
   0.351E+02 -.277E+02 -.133E-06   -.424E-02 0.705E+01 -.911E-16   0.170E+01 -.261E+01 0.662E-23   -.269E+02 0.163E+02 0.970E-05
   0.110E+02 -.134E+02 0.772E-07   -.105E-01 0.117E+02 0.258E-18   -.222E+01 0.235E+00 0.827E-24   -.135E+02 0.279E+01 0.631E-04
   -.116E+02 -.337E+02 0.110E-06   0.267E+02 0.169E+02 0.137E-15   -.102E+01 -.488E+00 0.103E-24   -.776E+01 0.116E+02 -.603E-06
   0.341E+02 0.247E+02 0.145E-06   -.280E+02 -.147E+02 0.220E-16   -.439E+01 0.264E+01 0.000E+00   -.442E+00 -.953E+01 0.301E-05
   0.167E+01 -.555E+01 -.235E-07   0.615E+01 0.348E+01 -.201E-16   -.212E+01 0.129E+01 0.662E-23   -.677E+01 0.267E+01 0.487E-05
   -.337E+01 0.233E+02 -.127E-07   0.129E+01 -.315E+02 0.140E-15   -.878E+01 0.328E+01 0.662E-23   0.121E+02 0.288E+00 0.377E-04
   0.283E+01 -.194E+02 0.739E-07   0.126E+01 0.316E+02 -.947E-16   -.200E+01 0.225E+01 0.414E-24   -.224E+01 -.121E+02 -.204E-04
   0.121E+02 0.471E+02 0.613E-07   -.162E+02 -.493E+02 0.255E-15   -.299E+01 -.456E+01 0.000E+00   0.121E+01 0.234E+00 0.102E-04
   0.250E+02 0.125E+02 -.991E-08   0.135E+01 0.449E-01 0.944E-16   0.101E+02 0.106E+02 0.207E-24   -.290E+02 -.110E+02 -.363E-04
   -.636E+01 -.354E+02 0.134E-06   -.161E+02 0.493E+02 0.808E-16   -.320E+01 0.507E+01 0.132E-22   0.204E+02 -.183E+02 -.749E-04
   0.559E+01 -.108E+03 0.117E-06   0.161E+02 0.493E+02 0.670E-16   0.308E+01 -.198E+02 0.662E-23   -.156E+02 0.622E+02 -.444E-05
   0.574E+02 -.205E+02 -.480E-07   -.135E+01 0.336E-01 -.346E-16   0.136E+02 -.231E+01 0.000E+00   -.596E+02 0.197E+02 -.554E-05
   -.662E+02 0.964E+02 -.827E-07   0.162E+02 -.492E+02 -.103E-15   -.153E+02 0.391E+01 0.000E+00   0.559E+02 -.467E+02 -.393E-05
   -.835E+02 0.159E+02 0.423E-07   0.508E+02 0.107E+02 0.254E-15   -.218E+01 0.812E+00 0.000E+00   0.317E+02 -.291E+02 -.711E-05
   0.233E+02 -.286E+02 0.173E-06   -.665E+00 0.114E+01 -.697E-16   0.232E+01 -.538E+01 -.662E-23   -.171E+02 0.167E+02 -.372E-04
   0.613E+02 0.440E+02 -.622E-07   -.347E+02 -.386E+02 0.164E-15   0.359E+01 0.101E+02 0.000E+00   -.194E+02 -.796E+01 0.331E-05
   -.324E+02 -.213E+02 0.102E-07   0.644E+00 -.114E+01 -.474E-16   -.245E+01 -.697E+01 0.000E+00   0.260E+02 0.231E+02 -.441E-05
   -.253E+02 -.361E+02 -.785E-07   0.346E+02 0.386E+02 0.192E-16   0.243E+01 0.809E+01 0.000E+00   -.912E+01 -.643E+00 0.253E-06
   -.562E+02 -.922E+01 -.197E-06   0.280E+02 0.147E+02 0.104E-15   -.125E+02 0.356E+01 0.662E-23   0.339E+02 -.903E+01 -.356E-05
   0.604E+02 0.196E+02 -.454E-07   -.268E+02 -.169E+02 -.307E-16   0.102E+02 -.111E+01 0.000E+00   -.364E+02 -.364E+00 0.476E-05
   0.738E+02 0.147E+02 -.145E-06   -.508E+02 -.107E+02 0.414E-16   0.210E+00 0.396E+01 -.132E-22   -.125E+02 -.764E+01 -.378E-05
   -.146E+02 -.416E+01 -.814E-07   0.101E+02 -.585E+01 -.104E-15   -.441E+01 -.145E-01 0.199E-22   0.582E+01 0.103E+02 -.754E-05
   -.118E+01 -.680E+02 0.262E-06   -.178E+02 0.557E+01 -.141E-15   0.144E+01 0.331E+01 -.827E-24   0.599E+01 0.408E+02 -.788E-06
   -.265E+02 -.490E+01 0.871E-08   -.403E+01 0.182E+02 0.114E-16   -.741E+01 0.374E+00 -.132E-22   0.320E+02 -.111E+02 0.388E-06
   0.292E+02 0.745E+01 0.366E-06   0.138E+02 -.126E+02 0.181E-17   0.129E+02 0.219E+01 -.265E-22   -.434E+02 0.486E+01 0.306E-05
   0.435E+02 -.230E+02 -.817E-07   -.398E+01 -.181E+02 -.254E-16   0.102E+02 -.175E+02 0.000E+00   -.388E+02 0.454E+02 -.538E-05
   -.612E+02 0.836E+02 0.148E-06   0.395E+01 -.181E+02 0.115E-15   -.787E+01 0.128E+02 -.662E-23   0.546E+02 -.688E+02 -.140E-04
   0.590E+02 0.368E+02 -.243E-06   -.137E+02 0.125E+02 0.188E-16   -.173E+01 -.201E+01 -.331E-23   -.324E+02 -.260E+02 -.309E-06
   -.882E+02 0.391E+02 -.106E-06   0.178E+02 0.549E+01 -.103E-15   -.110E+02 0.558E+01 -.331E-23   0.710E+02 -.400E+02 0.761E-05
   -.971E+01 0.450E+02 -.209E-06   -.138E+02 -.127E+02 0.998E-17   0.328E+01 0.278E+01 0.132E-22   0.162E+02 -.263E+02 -.804E-05
   -.157E+02 -.763E+01 0.204E-06   0.403E+01 0.182E+02 -.222E-16   0.284E+01 -.776E+01 0.827E-24   0.540E+01 -.554E+01 -.668E-05
   -.252E+02 -.322E+02 -.423E-06   0.178E+02 -.558E+01 0.378E-16   0.105E+01 -.130E+02 0.000E+00   0.370E+01 0.380E+02 -.131E-03
   0.388E+02 -.171E+02 -.131E-06   -.178E+02 -.557E+01 0.760E-16   -.340E+01 -.790E-02 0.662E-23   -.146E+02 0.166E+02 -.806E-05
   0.307E+02 -.295E+02 0.781E-07   0.136E+02 0.126E+02 -.666E-17   0.158E+02 -.643E+00 0.265E-22   -.475E+02 0.147E+02 0.102E-05
   0.176E+02 -.368E+02 0.154E-06   0.102E+02 0.583E+01 -.174E-16   0.317E+01 -.394E+01 0.662E-23   -.215E+02 0.242E+02 0.100E-05
 -----------------------------------------------------------------------------------------------
   0.106E+03 -.839E+02 0.204E-07   0.941E-13 0.115E-12 0.106E-14   -.117E+02 -.424E+01 0.559E-22   -.237E+02 0.314E+02 -.197E-03
 
 
 POSITION                                       TOTAL-FORCE (eV/Angst)
 -----------------------------------------------------------------------------------
     -0.18575      2.41939      0.00000        -7.900954      2.289947      0.000000
     -1.42022      3.13196      0.00000        12.110121      3.684680     -0.000000
      0.93157      3.37097      0.00000         0.730545      6.094576     -0.000000
      0.26147      4.61957      0.00000        -9.189149     11.757915      0.000000
     -1.15502      4.57568      0.00000        14.342357     -4.721473      0.000000
      0.94119      5.79648      0.00000       -19.850061      1.783204     -0.000000
      2.35746      5.84025      0.00000        -2.406024     -3.583871     -0.000000
      2.62288      7.28392      0.00000       -18.595862      8.864237     -0.000000
      1.38859      7.99668      0.00000         1.728187      0.754277      0.000000
      0.27128      7.04517      0.00000        12.568482     -3.685564      0.000000
      3.84870      7.96794      0.00000         0.810930     -2.577165     -0.000000
      3.84864      9.41159      0.00000        -2.502855      7.199114     -0.000000
      2.61829     10.12211      0.00000         3.296529    -13.270797     -0.000000
      1.36817      9.40023      0.00000        10.574604    -13.601749     -0.000000
      5.07899     10.12196      0.00000        11.552784     -4.478297     -0.000000
      9.11269      0.29418      0.00000        -3.296552      2.636290     -0.000000
      7.86230      1.01573      0.00000         0.738267     -5.208734     -0.000000
      6.65709      0.29614      0.00000        -7.092102      9.064647      0.000000
      0.16291     10.11966      0.00000        -0.291402     -4.661738     -0.000000
     10.34320      1.00457      0.00000         8.674999     -5.940331      0.000000
     10.34319      2.44800      0.00000        -6.046876      2.452006     -0.000000
      9.11730      3.13175      0.00000         5.161223     -4.710711     -0.000000
      7.88284      2.41919      0.00000        -0.057693      4.095916     -0.000000
     11.57370      0.29415      0.00000        -2.387113      2.926836     -0.000000
     -5.45497     10.11952      0.00000        -0.129531     -3.689636     -0.000000
      1.03996      0.29606      0.00000        -1.521497      3.492693      0.000000
     -4.07218      9.62709      0.00000        -7.182525     -5.517407      0.000000
     -3.32557     10.83152      0.00000         6.317693     13.130156     -0.000000
      2.42293      0.78768      0.00000        -6.560706      1.782638     -0.000000
      5.27392      0.78773      0.00000         7.824670    -15.469936      0.000000
     -1.96651     10.83155      0.00000         8.643913     -2.054829     -0.000000
     -1.21981      9.62710      0.00000       -10.596466      5.339148      0.000000
      8.85224      4.57541      0.00000        -4.340257     -0.597131     -0.000000
      7.43576      4.61937      0.00000         6.473620    -14.983614     -0.000000
      6.76546      3.37073      0.00000         9.528530      8.510994     -0.000000
      6.75621      5.79619      0.00000        -9.435961     -5.311869      0.000000
      7.42647      7.04491      0.00000         1.329259     11.058434     -0.000000
      6.30906      7.99648      0.00000        -8.144739      1.160582     -0.000000
      5.07462      7.28383      0.00000         5.990112      2.314209     -0.000000
      5.33977      5.84016      0.00000         9.336414      1.335345      0.000000
      6.32903      9.40002      0.00000        -4.471733      1.355829      0.000000
     -1.90585      5.79946      0.00000       -12.861763    -17.304529     -0.000000
      3.10664      2.05034      0.00000        -7.249059      3.590310     -0.000000
      2.36685      3.33213      0.00000        11.132813      2.905695     -0.000000
     -3.38737      8.36494      0.00000         9.616586    -12.096557      0.000000
     -1.90400      8.36492      0.00000       -11.760707     10.453544     -0.000000
     -1.16411      7.08367      0.00000         9.849856     22.394090     -0.000000
      9.60323      5.79941      0.00000       -11.760528     11.175585     -0.000000
      5.33027      3.33201      0.00000        -5.281130      9.824121      0.000000
      4.59001      2.05030      0.00000        -4.750728     -1.667684      0.000000
      3.10852      4.61643      0.00000        -3.852041    -11.725237      0.000000
      4.58867      4.61635      0.00000         1.629696     -5.104664     -0.000000
      8.86183      7.08354      0.00000        11.323875     -1.777024     -0.000000
     -0.16531      1.01586      0.00000         8.229949     -9.686476     -0.000000
 -----------------------------------------------------------------------------------
    total drift:                               70.379195    -56.693793     -0.000197


--------------------------------------------------------------------------------------------------------



  FREE ENERGIE OF THE ION-ELECTRON SYSTEM (eV)
  ---------------------------------------------------
  free  energy   TOTEN  =      -780.61533239 eV

  energy  without entropy=     -780.61533001  energy(sigma->0) =     -780.61533120
 


--------------------------------------------------------------------------------------------------------


    POTLOK:  cpu time    0.1694: real time    0.1699


--------------------------------------------------------------------------------------------------------


 writing wavefunctions
     LOOP+:  cpu time 1571.5842: real time 1626.4755
    4ORBIT:  cpu time    0.0000: real time    0.0000
 


 total charge     
 
# of ion       s       p       d       tot
------------------------------------------
    1        0.782   1.287   0.000   2.069
    2        0.954   2.324   0.000   3.278
    3        0.691   1.028   0.000   1.719
    4        1.021   2.660   0.000   3.682
    5        0.932   2.260   0.000   3.191
    6        1.005   2.547   0.000   3.551
    7        0.603   0.824   0.000   1.427
    8        0.910   1.721   0.000   2.631
    9        0.995   2.505   0.000   3.500
   10        0.937   2.189   0.000   3.126
   11        0.700   1.067   0.000   1.767
   12        0.797   1.310   0.000   2.107
   13        0.991   2.484   0.000   3.475
   14        0.929   2.210   0.000   3.139
   15        0.934   2.183   0.000   3.117
   16        0.741   1.191   0.000   1.932
   17        0.912   1.999   0.000   2.911
   18        0.888   1.763   0.000   2.651
   19        0.682   1.008   0.000   1.690
   20        0.951   2.310   0.000   3.260
   21        0.759   1.245   0.000   2.004
   22        0.941   2.225   0.000   3.166
   23        0.767   1.256   0.000   2.023
   24        0.769   1.298   0.000   2.067
   25        0.944   2.232   0.000   3.176
   26        0.820   1.456   0.000   2.276
   27        0.621   0.855   0.000   1.476
   28        0.812   1.348   0.000   2.160
   29        0.919   2.206   0.000   3.125
   30        0.998   2.523   0.000   3.521
   31        1.001   2.576   0.000   3.577
   32        0.951   2.342   0.000   3.293
   33        0.782   1.347   0.000   2.129
   34        0.987   2.402   0.000   3.389
   35        0.924   2.040   0.000   2.963
   36        0.832   1.499   0.000   2.331
   37        0.662   0.981   0.000   1.643
   38        0.973   2.373   0.000   3.346
   39        0.965   2.308   0.000   3.273
   40        0.890   1.909   0.000   2.799
   41        0.862   1.674   0.000   2.535
   42        0.583   0.572   0.000   1.155
   43        0.900   1.996   0.000   2.896
   44        0.902   1.887   0.000   2.790
   45        0.961   2.198   0.000   3.158
   46        0.903   1.993   0.000   2.897
   47        0.570   0.524   0.000   1.093
   48        0.921   2.121   0.000   3.042
   49        0.856   1.667   0.000   2.524
   50        0.710   1.094   0.000   1.804
   51        0.973   2.357   0.000   3.330
   52        0.809   1.542   0.000   2.351
   53        0.980   2.432   0.000   3.412
   54        0.958   2.346   0.000   3.304
--------------------------------------------------
tot         46.559  97.694   0.000 144.254
 

 total amount of memory used by VASP MPI-rank0   325618. kBytes
=======================================================================

   base      :      30000. kBytes
   nonlr-proj:       2610. kBytes
   fftplans  :      23610. kBytes
   grid      :       8534. kBytes
   one-center:          6. kBytes
   wavefun   :     260858. kBytes
 
  
  
 General timing and accounting informations for this job:
 ========================================================
  
                  Total CPU time used (sec):     1653.322
                            User time (sec):     1638.047
                          System time (sec):       15.275
                         Elapsed time (sec):     1721.392
  
                   Maximum memory used (kb):      868296.
                   Average memory used (kb):           0.
  
                          Minor page faults:       174886
                          Major page faults:          260
                 Voluntary context switches:         3101
