 Entering Gaussian System, Link 0=g16
 Initial command:
 /project/6004141/group/g16/g16/l1.exe "/scratch/hpham196/GaussianScratch/Gau-51952.inp" -scrdir="/scratch/hpham196/GaussianScratch/"
 Entering Link 1 = /project/6004141/group/g16/g16/l1.exe PID=     52040.
  
 Copyright (c) 1988,1990,1992,1993,1995,1998,2003,2009,2016,
            Gaussian, Inc.  All Rights Reserved.
  
 This is part of the Gaussian(R) 16 program.  It is based on
 the Gaussian(R) 09 system (copyright 2009, Gaussian, Inc.),
 the Gaussian(R) 03 system (copyright 2003, Gaussian, Inc.),
 the Gaussian(R) 98 system (copyright 1998, Gaussian, Inc.),
 the Gaussian(R) 94 system (copyright 1995, Gaussian, Inc.),
 the Gaussian 92(TM) system (copyright 1992, Gaussian, Inc.),
 the Gaussian 90(TM) system (copyright 1990, Gaussian, Inc.),
 the Gaussian 88(TM) system (copyright 1988, Gaussian, Inc.),
 the Gaussian 86(TM) system (copyright 1986, Carnegie Mellon
 University), and the Gaussian 82(TM) system (copyright 1983,
 Carnegie Mellon University). Gaussian is a federally registered
 trademark of Gaussian, Inc.
  
 This software contains proprietary and confidential information,
 including trade secrets, belonging to Gaussian, Inc.
  
 This software is provided under written license and may be
 used, copied, transmitted, or stored only in accord with that
 written license.
  
 The following legend is applicable only to US Government
 contracts under FAR:
  
                    RESTRICTED RIGHTS LEGEND
  
 Use, reproduction and disclosure by the US Government is
 subject to restrictions as set forth in subparagraphs (a)
 and (c) of the Commercial Computer Software - Restricted
 Rights clause in FAR 52.227-19.
  
 Gaussian, Inc.
 340 Quinnipiac St., Bldg. 40, Wallingford CT 06492
  
  
 ---------------------------------------------------------------
 Warning -- This program may not be used in any manner that
 competes with the business of Gaussian, Inc. or will provide
 assistance to any competitor of Gaussian, Inc.  The licensee
 of this program is prohibited from giving any competitor of
 Gaussian, Inc. access to this program.  By using this program,
 the user acknowledges that Gaussian, Inc. is engaged in the
 business of creating and licensing software in the field of
 computational chemistry and represents and warrants to the
 licensee that it is not a competitor of Gaussian, Inc. and that
 it will not use this program in any manner prohibited above.
 ---------------------------------------------------------------
  

 Cite this work as:
 Gaussian 16, Revision A.03,
 M. J. Frisch, G. W. Trucks, H. B. Schlegel, G. E. Scuseria, 
 M. A. Robb, J. R. Cheeseman, G. Scalmani, V. Barone, 
 G. A. Petersson, H. Nakatsuji, X. Li, M. Caricato, A. V. Marenich, 
 J. Bloino, B. G. Janesko, R. Gomperts, B. Mennucci, H. P. Hratchian, 
 J. V. Ortiz, A. F. Izmaylov, J. L. Sonnenberg, D. Williams-Young, 
 F. Ding, F. Lipparini, F. Egidi, J. Goings, B. Peng, A. Petrone, 
 T. Henderson, D. Ranasinghe, V. G. Zakrzewski, J. Gao, N. Rega, 
 G. Zheng, W. Liang, M. Hada, M. Ehara, K. Toyota, R. Fukuda, 
 J. Hasegawa, M. Ishida, T. Nakajima, Y. Honda, O. Kitao, H. Nakai, 
 T. Vreven, K. Throssell, J. A. Montgomery, Jr., J. E. Peralta, 
 F. Ogliaro, M. J. Bearpark, J. J. Heyd, E. N. Brothers, K. N. Kudin, 
 V. N. Staroverov, T. A. Keith, R. Kobayashi, J. Normand, 
 K. Raghavachari, A. P. Rendell, J. C. Burant, S. S. Iyengar, 
 J. Tomasi, M. Cossi, J. M. Millam, M. Klene, C. Adamo, R. Cammi, 
 J. W. Ochterski, R. L. Martin, K. Morokuma, O. Farkas, 
 J. B. Foresman, and D. J. Fox, Gaussian, Inc., Wallingford CT, 2016.
 
 ******************************************
 Gaussian 16:  ES64L-G16RevA.03 25-Dec-2016
                 3-Sep-2022 
 ******************************************
 %NProcShared=40
 Will use up to   40 processors via shared memory.
 %chk=Azulene-3.chk
 --------------------------------------------
 # opt wb97xd/6-311++g(d,p) geom=connectivity
 --------------------------------------------
 1/18=20,19=15,26=3,38=1,57=2/1,3;
 2/9=110,12=2,17=6,18=5,40=1/2;
 3/5=4,6=6,7=1111,11=2,25=1,30=1,71=1,74=-58/1,2,3;
 4//1;
 5/5=2,38=5/2;
 6/7=2,8=2,9=2,10=2,28=1/1;
 7//1,2,3,16;
 1/18=20,19=15,26=3/3(2);
 2/9=110/2;
 99//99;
 2/9=110/2;
 3/5=4,6=6,7=1111,11=2,25=1,30=1,71=1,74=-58/1,2,3;
 4/5=5,16=3,69=1/1;
 5/5=2,38=5/2;
 7//1,2,3,16;
 1/18=20,19=15,26=3/3(-5);
 2/9=110/2;
 6/7=2,8=2,9=2,10=2,19=2,28=1/1;
 99/9=1/99;
 ---------------
 Fiveseven-3.cdx
 ---------------
 Symbolic Z-matrix:
 Charge =  0 Multiplicity = 1
 C                     2.90405   2.51472   0. 
 C                     3.62981   1.2577    0. 
 C                     5.03516   1.58139   0. 
 C                     5.15818   2.97816   0. 
 C                     3.88703   3.56998   0. 
 C                     1.52057   2.63374   0. 
 C                     3.04117   0.00005   0. 
 C                     0.72572   3.77233   0. 
 C                    -0.72578   3.77227   0. 
 C                    -1.52058   2.63366   0. 
 C                    -2.90405   2.51461   0. 
 C                    -3.62981   1.25759   0. 
 C                    -3.04117  -0.00005   0. 
 C                    -3.62981  -1.2577    0. 
 C                    -2.90405  -2.51472   0. 
 C                    -1.52057  -2.63374   0. 
 C                    -0.72572  -3.77233   0. 
 C                     0.72578  -3.77227   0. 
 C                     1.52058  -2.63366   0. 
 C                     2.90405  -2.51461   0. 
 C                     3.62981  -1.25759   0. 
 C                     3.88703  -3.5698    0. 
 C                     5.15822  -2.97797   0. 
 C                     5.0352   -1.58117   0. 
 C                    -1.14814  -5.15122   0. 
 C                     0.00003  -5.95614   0. 
 C                     1.14814  -5.15115   0. 
 C                    -5.03516  -1.58139   0. 
 C                    -5.15818  -2.97816   0. 
 C                    -3.88703  -3.56998   0. 
 C                    -3.88703   3.5698    0. 
 C                    -5.15822   2.97797   0. 
 C                    -5.0352    1.58117   0. 
 C                     1.14814   5.15122   0. 
 C                    -0.00003   5.95614   0. 
 C                    -1.14814   5.15115   0. 
 C                     3.66209   4.97849   0. 
 C                     2.48043   5.6607    0. 
 C                    -2.48046   5.66058   0. 
 C                    -3.66209   4.97834   0. 
 C                    -6.14254   0.6821    0. 
 C                    -6.14253  -0.68236   0. 
 C                    -3.66209  -4.97849   0. 
 C                    -2.48043  -5.6607    0. 
 C                     2.48046  -5.66058   0. 
 C                     3.66209  -4.97834   0. 
 C                     6.14254  -0.6821    0. 
 C                     6.14253   0.68236   0. 
 H                    -7.11928  -1.1634    0. 
 H                    -7.11932   1.1631    0. 
 H                    -6.09755   3.52028   0. 
 H                    -4.56705   5.58374   0. 
 H                    -2.5523    6.747     0. 
 H                    -0.00003   7.04078   0. 
 H                     2.55222   6.74712   0. 
 H                     4.56704   5.58389   0. 
 H                     6.09749   3.52048   0. 
 H                     7.11928   1.1634    0. 
 H                     7.11932  -1.1631    0. 
 H                     6.09755  -3.52028   0. 
 H                     4.56705  -5.58374   0. 
 H                     2.5523   -6.747     0. 
 H                     0.00003  -7.04078   0. 
 H                    -2.55222  -6.74712   0. 
 H                    -4.56704  -5.58389   0. 
 H                    -6.09749  -3.52048   0. 
 H                    -1.95359  -0.00017   0. 
 H                    -0.97676   1.69176   0. 
 H                     0.97691   1.69179   0. 
 H                     1.95359   0.00017   0. 
 H                     0.97676  -1.69176   0. 
 H                    -0.97691  -1.69179   0. 
 

 GradGradGradGradGradGradGradGradGradGradGradGradGradGradGradGradGradGrad
 Berny optimization.
 Initialization pass.
                           ----------------------------
                           !    Initial Parameters    !
                           ! (Angstroms and Degrees)  !
 --------------------------                            --------------------------
 ! Name  Definition              Value          Derivative Info.                !
 --------------------------------------------------------------------------------
 ! R1    R(1,2)                  1.4515         estimate D2E/DX2                !
 ! R2    R(1,5)                  1.4422         estimate D2E/DX2                !
 ! R3    R(1,6)                  1.3886         estimate D2E/DX2                !
 ! R4    R(2,3)                  1.4421         estimate D2E/DX2                !
 ! R5    R(2,7)                  1.3886         estimate D2E/DX2                !
 ! R6    R(3,4)                  1.4022         estimate D2E/DX2                !
 ! R7    R(3,48)                 1.4264         estimate D2E/DX2                !
 ! R8    R(4,5)                  1.4022         estimate D2E/DX2                !
 ! R9    R(4,57)                 1.0846         estimate D2E/DX2                !
 ! R10   R(5,37)                 1.4264         estimate D2E/DX2                !
 ! R11   R(6,8)                  1.3886         estimate D2E/DX2                !
 ! R12   R(6,69)                 1.0876         estimate D2E/DX2                !
 ! R13   R(7,21)                 1.3886         estimate D2E/DX2                !
 ! R14   R(7,70)                 1.0876         estimate D2E/DX2                !
 ! R15   R(8,9)                  1.4515         estimate D2E/DX2                !
 ! R16   R(8,34)                 1.4421         estimate D2E/DX2                !
 ! R17   R(9,10)                 1.3886         estimate D2E/DX2                !
 ! R18   R(9,36)                 1.4421         estimate D2E/DX2                !
 ! R19   R(10,11)                1.3886         estimate D2E/DX2                !
 ! R20   R(10,68)                1.0876         estimate D2E/DX2                !
 ! R21   R(11,12)                1.4515         estimate D2E/DX2                !
 ! R22   R(11,31)                1.4421         estimate D2E/DX2                !
 ! R23   R(12,13)                1.3886         estimate D2E/DX2                !
 ! R24   R(12,33)                1.4422         estimate D2E/DX2                !
 ! R25   R(13,14)                1.3886         estimate D2E/DX2                !
 ! R26   R(13,67)                1.0876         estimate D2E/DX2                !
 ! R27   R(14,15)                1.4515         estimate D2E/DX2                !
 ! R28   R(14,28)                1.4421         estimate D2E/DX2                !
 ! R29   R(15,16)                1.3886         estimate D2E/DX2                !
 ! R30   R(15,30)                1.4422         estimate D2E/DX2                !
 ! R31   R(16,17)                1.3886         estimate D2E/DX2                !
 ! R32   R(16,72)                1.0876         estimate D2E/DX2                !
 ! R33   R(17,18)                1.4515         estimate D2E/DX2                !
 ! R34   R(17,25)                1.4421         estimate D2E/DX2                !
 ! R35   R(18,19)                1.3886         estimate D2E/DX2                !
 ! R36   R(18,27)                1.4421         estimate D2E/DX2                !
 ! R37   R(19,20)                1.3886         estimate D2E/DX2                !
 ! R38   R(19,71)                1.0876         estimate D2E/DX2                !
 ! R39   R(20,21)                1.4515         estimate D2E/DX2                !
 ! R40   R(20,22)                1.4421         estimate D2E/DX2                !
 ! R41   R(21,24)                1.4422         estimate D2E/DX2                !
 ! R42   R(22,23)                1.4022         estimate D2E/DX2                !
 ! R43   R(22,46)                1.4264         estimate D2E/DX2                !
 ! R44   R(23,24)                1.4022         estimate D2E/DX2                !
 ! R45   R(23,60)                1.0846         estimate D2E/DX2                !
 ! R46   R(24,47)                1.4264         estimate D2E/DX2                !
 ! R47   R(25,26)                1.4022         estimate D2E/DX2                !
 ! R48   R(25,44)                1.4264         estimate D2E/DX2                !
 ! R49   R(26,27)                1.4022         estimate D2E/DX2                !
 ! R50   R(26,63)                1.0846         estimate D2E/DX2                !
 ! R51   R(27,45)                1.4264         estimate D2E/DX2                !
 ! R52   R(28,29)                1.4022         estimate D2E/DX2                !
 ! R53   R(28,42)                1.4264         estimate D2E/DX2                !
 ! R54   R(29,30)                1.4022         estimate D2E/DX2                !
 ! R55   R(29,66)                1.0846         estimate D2E/DX2                !
 ! R56   R(30,43)                1.4264         estimate D2E/DX2                !
 ! R57   R(31,32)                1.4022         estimate D2E/DX2                !
 ! R58   R(31,40)                1.4264         estimate D2E/DX2                !
 ! R59   R(32,33)                1.4022         estimate D2E/DX2                !
 ! R60   R(32,51)                1.0846         estimate D2E/DX2                !
 ! R61   R(33,41)                1.4264         estimate D2E/DX2                !
 ! R62   R(34,35)                1.4022         estimate D2E/DX2                !
 ! R63   R(34,38)                1.4264         estimate D2E/DX2                !
 ! R64   R(35,36)                1.4022         estimate D2E/DX2                !
 ! R65   R(35,54)                1.0846         estimate D2E/DX2                !
 ! R66   R(36,39)                1.4264         estimate D2E/DX2                !
 ! R67   R(37,38)                1.3645         estimate D2E/DX2                !
 ! R68   R(37,56)                1.0888         estimate D2E/DX2                !
 ! R69   R(38,55)                1.0888         estimate D2E/DX2                !
 ! R70   R(39,40)                1.3644         estimate D2E/DX2                !
 ! R71   R(39,53)                1.0888         estimate D2E/DX2                !
 ! R72   R(40,52)                1.0888         estimate D2E/DX2                !
 ! R73   R(41,42)                1.3645         estimate D2E/DX2                !
 ! R74   R(41,50)                1.0888         estimate D2E/DX2                !
 ! R75   R(42,49)                1.0888         estimate D2E/DX2                !
 ! R76   R(43,44)                1.3645         estimate D2E/DX2                !
 ! R77   R(43,65)                1.0888         estimate D2E/DX2                !
 ! R78   R(44,64)                1.0888         estimate D2E/DX2                !
 ! R79   R(45,46)                1.3644         estimate D2E/DX2                !
 ! R80   R(45,62)                1.0888         estimate D2E/DX2                !
 ! R81   R(46,61)                1.0888         estimate D2E/DX2                !
 ! R82   R(47,48)                1.3645         estimate D2E/DX2                !
 ! R83   R(47,59)                1.0888         estimate D2E/DX2                !
 ! R84   R(48,58)                1.0888         estimate D2E/DX2                !
 ! A1    A(2,1,5)              107.0303         estimate D2E/DX2                !
 ! A2    A(2,1,6)              124.9176         estimate D2E/DX2                !
 ! A3    A(5,1,6)              128.0521         estimate D2E/DX2                !
 ! A4    A(1,2,3)              107.0306         estimate D2E/DX2                !
 ! A5    A(1,2,7)              124.9174         estimate D2E/DX2                !
 ! A6    A(3,2,7)              128.052          estimate D2E/DX2                !
 ! A7    A(2,3,4)              108.0033         estimate D2E/DX2                !
 ! A8    A(2,3,48)             127.9579         estimate D2E/DX2                !
 ! A9    A(4,3,48)             124.0388         estimate D2E/DX2                !
 ! A10   A(3,4,5)              109.9327         estimate D2E/DX2                !
 ! A11   A(3,4,57)             125.0335         estimate D2E/DX2                !
 ! A12   A(5,4,57)             125.0338         estimate D2E/DX2                !
 ! A13   A(1,5,4)              108.0032         estimate D2E/DX2                !
 ! A14   A(1,5,37)             127.9575         estimate D2E/DX2                !
 ! A15   A(4,5,37)             124.0393         estimate D2E/DX2                !
 ! A16   A(1,6,8)              129.836          estimate D2E/DX2                !
 ! A17   A(1,6,69)             115.0755         estimate D2E/DX2                !
 ! A18   A(8,6,69)             115.0885         estimate D2E/DX2                !
 ! A19   A(2,7,21)             129.8361         estimate D2E/DX2                !
 ! A20   A(2,7,70)             115.0752         estimate D2E/DX2                !
 ! A21   A(21,7,70)            115.0887         estimate D2E/DX2                !
 ! A22   A(6,8,9)              124.917          estimate D2E/DX2                !
 ! A23   A(6,8,34)             128.0481         estimate D2E/DX2                !
 ! A24   A(9,8,34)             107.0349         estimate D2E/DX2                !
 ! A25   A(8,9,10)             124.919          estimate D2E/DX2                !
 ! A26   A(8,9,36)             107.028          estimate D2E/DX2                !
 ! A27   A(10,9,36)            128.053          estimate D2E/DX2                !
 ! A28   A(9,10,11)            129.835          estimate D2E/DX2                !
 ! A29   A(9,10,68)            115.0827         estimate D2E/DX2                !
 ! A30   A(11,10,68)           115.0824         estimate D2E/DX2                !
 ! A31   A(10,11,12)           124.9189         estimate D2E/DX2                !
 ! A32   A(10,11,31)           128.0527         estimate D2E/DX2                !
 ! A33   A(12,11,31)           107.0284         estimate D2E/DX2                !
 ! A34   A(11,12,13)           124.9172         estimate D2E/DX2                !
 ! A35   A(11,12,33)           107.0346         estimate D2E/DX2                !
 ! A36   A(13,12,33)           128.0482         estimate D2E/DX2                !
 ! A37   A(12,13,14)           129.8361         estimate D2E/DX2                !
 ! A38   A(12,13,67)           115.0887         estimate D2E/DX2                !
 ! A39   A(14,13,67)           115.0752         estimate D2E/DX2                !
 ! A40   A(13,14,15)           124.9174         estimate D2E/DX2                !
 ! A41   A(13,14,28)           128.052          estimate D2E/DX2                !
 ! A42   A(15,14,28)           107.0306         estimate D2E/DX2                !
 ! A43   A(14,15,16)           124.9176         estimate D2E/DX2                !
 ! A44   A(14,15,30)           107.0303         estimate D2E/DX2                !
 ! A45   A(16,15,30)           128.0521         estimate D2E/DX2                !
 ! A46   A(15,16,17)           129.836          estimate D2E/DX2                !
 ! A47   A(15,16,72)           115.0755         estimate D2E/DX2                !
 ! A48   A(17,16,72)           115.0885         estimate D2E/DX2                !
 ! A49   A(16,17,18)           124.917          estimate D2E/DX2                !
 ! A50   A(16,17,25)           128.0481         estimate D2E/DX2                !
 ! A51   A(18,17,25)           107.0349         estimate D2E/DX2                !
 ! A52   A(17,18,19)           124.919          estimate D2E/DX2                !
 ! A53   A(17,18,27)           107.028          estimate D2E/DX2                !
 ! A54   A(19,18,27)           128.053          estimate D2E/DX2                !
 ! A55   A(18,19,20)           129.835          estimate D2E/DX2                !
 ! A56   A(18,19,71)           115.0827         estimate D2E/DX2                !
 ! A57   A(20,19,71)           115.0824         estimate D2E/DX2                !
 ! A58   A(19,20,21)           124.9189         estimate D2E/DX2                !
 ! A59   A(19,20,22)           128.0527         estimate D2E/DX2                !
 ! A60   A(21,20,22)           107.0284         estimate D2E/DX2                !
 ! A61   A(7,21,20)            124.9172         estimate D2E/DX2                !
 ! A62   A(7,21,24)            128.0482         estimate D2E/DX2                !
 ! A63   A(20,21,24)           107.0346         estimate D2E/DX2                !
 ! A64   A(20,22,23)           108.0057         estimate D2E/DX2                !
 ! A65   A(20,22,46)           127.956          estimate D2E/DX2                !
 ! A66   A(23,22,46)           124.0383         estimate D2E/DX2                !
 ! A67   A(22,23,24)           109.9319         estimate D2E/DX2                !
 ! A68   A(22,23,60)           125.0354         estimate D2E/DX2                !
 ! A69   A(24,23,60)           125.0327         estimate D2E/DX2                !
 ! A70   A(21,24,23)           107.9994         estimate D2E/DX2                !
 ! A71   A(21,24,47)           127.9599         estimate D2E/DX2                !
 ! A72   A(23,24,47)           124.0407         estimate D2E/DX2                !
 ! A73   A(17,25,26)           107.9995         estimate D2E/DX2                !
 ! A74   A(17,25,44)           127.9602         estimate D2E/DX2                !
 ! A75   A(26,25,44)           124.0402         estimate D2E/DX2                !
 ! A76   A(25,26,27)           109.9319         estimate D2E/DX2                !
 ! A77   A(25,26,63)           125.0322         estimate D2E/DX2                !
 ! A78   A(27,26,63)           125.0359         estimate D2E/DX2                !
 ! A79   A(18,27,26)           108.0056         estimate D2E/DX2                !
 ! A80   A(18,27,45)           127.9554         estimate D2E/DX2                !
 ! A81   A(26,27,45)           124.039          estimate D2E/DX2                !
 ! A82   A(14,28,29)           108.0033         estimate D2E/DX2                !
 ! A83   A(14,28,42)           127.9579         estimate D2E/DX2                !
 ! A84   A(29,28,42)           124.0388         estimate D2E/DX2                !
 ! A85   A(28,29,30)           109.9327         estimate D2E/DX2                !
 ! A86   A(28,29,66)           125.0335         estimate D2E/DX2                !
 ! A87   A(30,29,66)           125.0338         estimate D2E/DX2                !
 ! A88   A(15,30,29)           108.0032         estimate D2E/DX2                !
 ! A89   A(15,30,43)           127.9575         estimate D2E/DX2                !
 ! A90   A(29,30,43)           124.0393         estimate D2E/DX2                !
 ! A91   A(11,31,32)           108.0057         estimate D2E/DX2                !
 ! A92   A(11,31,40)           127.956          estimate D2E/DX2                !
 ! A93   A(32,31,40)           124.0383         estimate D2E/DX2                !
 ! A94   A(31,32,33)           109.9319         estimate D2E/DX2                !
 ! A95   A(31,32,51)           125.0354         estimate D2E/DX2                !
 ! A96   A(33,32,51)           125.0327         estimate D2E/DX2                !
 ! A97   A(12,33,32)           107.9994         estimate D2E/DX2                !
 ! A98   A(12,33,41)           127.9599         estimate D2E/DX2                !
 ! A99   A(32,33,41)           124.0407         estimate D2E/DX2                !
 ! A100  A(8,34,35)            107.9995         estimate D2E/DX2                !
 ! A101  A(8,34,38)            127.9602         estimate D2E/DX2                !
 ! A102  A(35,34,38)           124.0402         estimate D2E/DX2                !
 ! A103  A(34,35,36)           109.9319         estimate D2E/DX2                !
 ! A104  A(34,35,54)           125.0322         estimate D2E/DX2                !
 ! A105  A(36,35,54)           125.0359         estimate D2E/DX2                !
 ! A106  A(9,36,35)            108.0056         estimate D2E/DX2                !
 ! A107  A(9,36,39)            127.9554         estimate D2E/DX2                !
 ! A108  A(35,36,39)           124.039          estimate D2E/DX2                !
 ! A109  A(5,37,38)            129.0727         estimate D2E/DX2                !
 ! A110  A(5,37,56)            114.7084         estimate D2E/DX2                !
 ! A111  A(38,37,56)           116.219          estimate D2E/DX2                !
 ! A112  A(34,38,37)           129.0733         estimate D2E/DX2                !
 ! A113  A(34,38,55)           114.7083         estimate D2E/DX2                !
 ! A114  A(37,38,55)           116.2184         estimate D2E/DX2                !
 ! A115  A(36,39,40)           129.0741         estimate D2E/DX2                !
 ! A116  A(36,39,53)           114.7083         estimate D2E/DX2                !
 ! A117  A(40,39,53)           116.2176         estimate D2E/DX2                !
 ! A118  A(31,40,39)           129.074          estimate D2E/DX2                !
 ! A119  A(31,40,52)           114.7084         estimate D2E/DX2                !
 ! A120  A(39,40,52)           116.2177         estimate D2E/DX2                !
 ! A121  A(33,41,42)           129.0733         estimate D2E/DX2                !
 ! A122  A(33,41,50)           114.7083         estimate D2E/DX2                !
 ! A123  A(42,41,50)           116.2184         estimate D2E/DX2                !
 ! A124  A(28,42,41)           129.0726         estimate D2E/DX2                !
 ! A125  A(28,42,49)           114.7084         estimate D2E/DX2                !
 ! A126  A(41,42,49)           116.219          estimate D2E/DX2                !
 ! A127  A(30,43,44)           129.0727         estimate D2E/DX2                !
 ! A128  A(30,43,65)           114.7084         estimate D2E/DX2                !
 ! A129  A(44,43,65)           116.219          estimate D2E/DX2                !
 ! A130  A(25,44,43)           129.0733         estimate D2E/DX2                !
 ! A131  A(25,44,64)           114.7083         estimate D2E/DX2                !
 ! A132  A(43,44,64)           116.2184         estimate D2E/DX2                !
 ! A133  A(27,45,46)           129.0741         estimate D2E/DX2                !
 ! A134  A(27,45,62)           114.7083         estimate D2E/DX2                !
 ! A135  A(46,45,62)           116.2176         estimate D2E/DX2                !
 ! A136  A(22,46,45)           129.074          estimate D2E/DX2                !
 ! A137  A(22,46,61)           114.7084         estimate D2E/DX2                !
 ! A138  A(45,46,61)           116.2177         estimate D2E/DX2                !
 ! A139  A(24,47,48)           129.0733         estimate D2E/DX2                !
 ! A140  A(24,47,59)           114.7083         estimate D2E/DX2                !
 ! A141  A(48,47,59)           116.2184         estimate D2E/DX2                !
 ! A142  A(3,48,47)            129.0726         estimate D2E/DX2                !
 ! A143  A(3,48,58)            114.7084         estimate D2E/DX2                !
 ! A144  A(47,48,58)           116.219          estimate D2E/DX2                !
 ! D1    D(5,1,2,3)              0.0            estimate D2E/DX2                !
 ! D2    D(5,1,2,7)            180.0            estimate D2E/DX2                !
 ! D3    D(6,1,2,3)            180.0            estimate D2E/DX2                !
 ! D4    D(6,1,2,7)              0.0            estimate D2E/DX2                !
 ! D5    D(2,1,5,4)              0.0            estimate D2E/DX2                !
 ! D6    D(2,1,5,37)           180.0            estimate D2E/DX2                !
 ! D7    D(6,1,5,4)            180.0            estimate D2E/DX2                !
 ! D8    D(6,1,5,37)             0.0            estimate D2E/DX2                !
 ! D9    D(2,1,6,8)            180.0            estimate D2E/DX2                !
 ! D10   D(2,1,6,69)             0.0            estimate D2E/DX2                !
 ! D11   D(5,1,6,8)              0.0            estimate D2E/DX2                !
 ! D12   D(5,1,6,69)           180.0            estimate D2E/DX2                !
 ! D13   D(1,2,3,4)              0.0            estimate D2E/DX2                !
 ! D14   D(1,2,3,48)           180.0            estimate D2E/DX2                !
 ! D15   D(7,2,3,4)            180.0            estimate D2E/DX2                !
 ! D16   D(7,2,3,48)             0.0            estimate D2E/DX2                !
 ! D17   D(1,2,7,21)           180.0            estimate D2E/DX2                !
 ! D18   D(1,2,7,70)             0.0            estimate D2E/DX2                !
 ! D19   D(3,2,7,21)             0.0            estimate D2E/DX2                !
 ! D20   D(3,2,7,70)           180.0            estimate D2E/DX2                !
 ! D21   D(2,3,4,5)              0.0            estimate D2E/DX2                !
 ! D22   D(2,3,4,57)           180.0            estimate D2E/DX2                !
 ! D23   D(48,3,4,5)           180.0            estimate D2E/DX2                !
 ! D24   D(48,3,4,57)            0.0            estimate D2E/DX2                !
 ! D25   D(2,3,48,47)            0.0            estimate D2E/DX2                !
 ! D26   D(2,3,48,58)          180.0            estimate D2E/DX2                !
 ! D27   D(4,3,48,47)          180.0            estimate D2E/DX2                !
 ! D28   D(4,3,48,58)            0.0            estimate D2E/DX2                !
 ! D29   D(3,4,5,1)              0.0            estimate D2E/DX2                !
 ! D30   D(3,4,5,37)           180.0            estimate D2E/DX2                !
 ! D31   D(57,4,5,1)           180.0            estimate D2E/DX2                !
 ! D32   D(57,4,5,37)            0.0            estimate D2E/DX2                !
 ! D33   D(1,5,37,38)            0.0            estimate D2E/DX2                !
 ! D34   D(1,5,37,56)          180.0            estimate D2E/DX2                !
 ! D35   D(4,5,37,38)          180.0            estimate D2E/DX2                !
 ! D36   D(4,5,37,56)            0.0            estimate D2E/DX2                !
 ! D37   D(1,6,8,9)            180.0            estimate D2E/DX2                !
 ! D38   D(1,6,8,34)             0.0            estimate D2E/DX2                !
 ! D39   D(69,6,8,9)             0.0            estimate D2E/DX2                !
 ! D40   D(69,6,8,34)          180.0            estimate D2E/DX2                !
 ! D41   D(2,7,21,20)          180.0            estimate D2E/DX2                !
 ! D42   D(2,7,21,24)            0.0            estimate D2E/DX2                !
 ! D43   D(70,7,21,20)           0.0            estimate D2E/DX2                !
 ! D44   D(70,7,21,24)         180.0            estimate D2E/DX2                !
 ! D45   D(6,8,9,10)             0.0            estimate D2E/DX2                !
 ! D46   D(6,8,9,36)           180.0            estimate D2E/DX2                !
 ! D47   D(34,8,9,10)          180.0            estimate D2E/DX2                !
 ! D48   D(34,8,9,36)            0.0            estimate D2E/DX2                !
 ! D49   D(6,8,34,35)          180.0            estimate D2E/DX2                !
 ! D50   D(6,8,34,38)            0.0            estimate D2E/DX2                !
 ! D51   D(9,8,34,35)            0.0            estimate D2E/DX2                !
 ! D52   D(9,8,34,38)          180.0            estimate D2E/DX2                !
 ! D53   D(8,9,10,11)          180.0            estimate D2E/DX2                !
 ! D54   D(8,9,10,68)            0.0            estimate D2E/DX2                !
 ! D55   D(36,9,10,11)           0.0            estimate D2E/DX2                !
 ! D56   D(36,9,10,68)         180.0            estimate D2E/DX2                !
 ! D57   D(8,9,36,35)            0.0            estimate D2E/DX2                !
 ! D58   D(8,9,36,39)          180.0            estimate D2E/DX2                !
 ! D59   D(10,9,36,35)         180.0            estimate D2E/DX2                !
 ! D60   D(10,9,36,39)           0.0            estimate D2E/DX2                !
 ! D61   D(9,10,11,12)         180.0            estimate D2E/DX2                !
 ! D62   D(9,10,11,31)           0.0            estimate D2E/DX2                !
 ! D63   D(68,10,11,12)          0.0            estimate D2E/DX2                !
 ! D64   D(68,10,11,31)        180.0            estimate D2E/DX2                !
 ! D65   D(10,11,12,13)          0.0            estimate D2E/DX2                !
 ! D66   D(10,11,12,33)        180.0            estimate D2E/DX2                !
 ! D67   D(31,11,12,13)        180.0            estimate D2E/DX2                !
 ! D68   D(31,11,12,33)          0.0            estimate D2E/DX2                !
 ! D69   D(10,11,31,32)        180.0            estimate D2E/DX2                !
 ! D70   D(10,11,31,40)          0.0            estimate D2E/DX2                !
 ! D71   D(12,11,31,32)          0.0            estimate D2E/DX2                !
 ! D72   D(12,11,31,40)        180.0            estimate D2E/DX2                !
 ! D73   D(11,12,13,14)        180.0            estimate D2E/DX2                !
 ! D74   D(11,12,13,67)          0.0            estimate D2E/DX2                !
 ! D75   D(33,12,13,14)          0.0            estimate D2E/DX2                !
 ! D76   D(33,12,13,67)        180.0            estimate D2E/DX2                !
 ! D77   D(11,12,33,32)          0.0            estimate D2E/DX2                !
 ! D78   D(11,12,33,41)        180.0            estimate D2E/DX2                !
 ! D79   D(13,12,33,32)        180.0            estimate D2E/DX2                !
 ! D80   D(13,12,33,41)          0.0            estimate D2E/DX2                !
 ! D81   D(12,13,14,15)        180.0            estimate D2E/DX2                !
 ! D82   D(12,13,14,28)          0.0            estimate D2E/DX2                !
 ! D83   D(67,13,14,15)          0.0            estimate D2E/DX2                !
 ! D84   D(67,13,14,28)        180.0            estimate D2E/DX2                !
 ! D85   D(13,14,15,16)          0.0            estimate D2E/DX2                !
 ! D86   D(13,14,15,30)        180.0            estimate D2E/DX2                !
 ! D87   D(28,14,15,16)        180.0            estimate D2E/DX2                !
 ! D88   D(28,14,15,30)          0.0            estimate D2E/DX2                !
 ! D89   D(13,14,28,29)        180.0            estimate D2E/DX2                !
 ! D90   D(13,14,28,42)          0.0            estimate D2E/DX2                !
 ! D91   D(15,14,28,29)          0.0            estimate D2E/DX2                !
 ! D92   D(15,14,28,42)        180.0            estimate D2E/DX2                !
 ! D93   D(14,15,16,17)        180.0            estimate D2E/DX2                !
 ! D94   D(14,15,16,72)          0.0            estimate D2E/DX2                !
 ! D95   D(30,15,16,17)          0.0            estimate D2E/DX2                !
 ! D96   D(30,15,16,72)        180.0            estimate D2E/DX2                !
 ! D97   D(14,15,30,29)          0.0            estimate D2E/DX2                !
 ! D98   D(14,15,30,43)        180.0            estimate D2E/DX2                !
 ! D99   D(16,15,30,29)        180.0            estimate D2E/DX2                !
 ! D100  D(16,15,30,43)          0.0            estimate D2E/DX2                !
 ! D101  D(15,16,17,18)        180.0            estimate D2E/DX2                !
 ! D102  D(15,16,17,25)          0.0            estimate D2E/DX2                !
 ! D103  D(72,16,17,18)          0.0            estimate D2E/DX2                !
 ! D104  D(72,16,17,25)        180.0            estimate D2E/DX2                !
 ! D105  D(16,17,18,19)          0.0            estimate D2E/DX2                !
 ! D106  D(16,17,18,27)        180.0            estimate D2E/DX2                !
 ! D107  D(25,17,18,19)        180.0            estimate D2E/DX2                !
 ! D108  D(25,17,18,27)          0.0            estimate D2E/DX2                !
 ! D109  D(16,17,25,26)        180.0            estimate D2E/DX2                !
 ! D110  D(16,17,25,44)          0.0            estimate D2E/DX2                !
 ! D111  D(18,17,25,26)          0.0            estimate D2E/DX2                !
 ! D112  D(18,17,25,44)        180.0            estimate D2E/DX2                !
 ! D113  D(17,18,19,20)        180.0            estimate D2E/DX2                !
 ! D114  D(17,18,19,71)          0.0            estimate D2E/DX2                !
 ! D115  D(27,18,19,20)          0.0            estimate D2E/DX2                !
 ! D116  D(27,18,19,71)        180.0            estimate D2E/DX2                !
 ! D117  D(17,18,27,26)          0.0            estimate D2E/DX2                !
 ! D118  D(17,18,27,45)        180.0            estimate D2E/DX2                !
 ! D119  D(19,18,27,26)        180.0            estimate D2E/DX2                !
 ! D120  D(19,18,27,45)          0.0            estimate D2E/DX2                !
 ! D121  D(18,19,20,21)        180.0            estimate D2E/DX2                !
 ! D122  D(18,19,20,22)          0.0            estimate D2E/DX2                !
 ! D123  D(71,19,20,21)          0.0            estimate D2E/DX2                !
 ! D124  D(71,19,20,22)        180.0            estimate D2E/DX2                !
 ! D125  D(19,20,21,7)           0.0            estimate D2E/DX2                !
 ! D126  D(19,20,21,24)        180.0            estimate D2E/DX2                !
 ! D127  D(22,20,21,7)         180.0            estimate D2E/DX2                !
 ! D128  D(22,20,21,24)          0.0            estimate D2E/DX2                !
 ! D129  D(19,20,22,23)        180.0            estimate D2E/DX2                !
 ! D130  D(19,20,22,46)          0.0            estimate D2E/DX2                !
 ! D131  D(21,20,22,23)          0.0            estimate D2E/DX2                !
 ! D132  D(21,20,22,46)        180.0            estimate D2E/DX2                !
 ! D133  D(7,21,24,23)         180.0            estimate D2E/DX2                !
 ! D134  D(7,21,24,47)           0.0            estimate D2E/DX2                !
 ! D135  D(20,21,24,23)          0.0            estimate D2E/DX2                !
 ! D136  D(20,21,24,47)        180.0            estimate D2E/DX2                !
 ! D137  D(20,22,23,24)          0.0            estimate D2E/DX2                !
 ! D138  D(20,22,23,60)        180.0            estimate D2E/DX2                !
 ! D139  D(46,22,23,24)        180.0            estimate D2E/DX2                !
 ! D140  D(46,22,23,60)          0.0            estimate D2E/DX2                !
 ! D141  D(20,22,46,45)          0.0            estimate D2E/DX2                !
 ! D142  D(20,22,46,61)        180.0            estimate D2E/DX2                !
 ! D143  D(23,22,46,45)        180.0            estimate D2E/DX2                !
 ! D144  D(23,22,46,61)          0.0            estimate D2E/DX2                !
 ! D145  D(22,23,24,21)          0.0            estimate D2E/DX2                !
 ! D146  D(22,23,24,47)        180.0            estimate D2E/DX2                !
 ! D147  D(60,23,24,21)        180.0            estimate D2E/DX2                !
 ! D148  D(60,23,24,47)          0.0            estimate D2E/DX2                !
 ! D149  D(21,24,47,48)          0.0            estimate D2E/DX2                !
 ! D150  D(21,24,47,59)        180.0            estimate D2E/DX2                !
 ! D151  D(23,24,47,48)        180.0            estimate D2E/DX2                !
 ! D152  D(23,24,47,59)          0.0            estimate D2E/DX2                !
 ! D153  D(17,25,26,27)          0.0            estimate D2E/DX2                !
 ! D154  D(17,25,26,63)        180.0            estimate D2E/DX2                !
 ! D155  D(44,25,26,27)        180.0            estimate D2E/DX2                !
 ! D156  D(44,25,26,63)          0.0            estimate D2E/DX2                !
 ! D157  D(17,25,44,43)          0.0            estimate D2E/DX2                !
 ! D158  D(17,25,44,64)        180.0            estimate D2E/DX2                !
 ! D159  D(26,25,44,43)        180.0            estimate D2E/DX2                !
 ! D160  D(26,25,44,64)          0.0            estimate D2E/DX2                !
 ! D161  D(25,26,27,18)          0.0            estimate D2E/DX2                !
 ! D162  D(25,26,27,45)        180.0            estimate D2E/DX2                !
 ! D163  D(63,26,27,18)        180.0            estimate D2E/DX2                !
 ! D164  D(63,26,27,45)          0.0            estimate D2E/DX2                !
 ! D165  D(18,27,45,46)          0.0            estimate D2E/DX2                !
 ! D166  D(18,27,45,62)        180.0            estimate D2E/DX2                !
 ! D167  D(26,27,45,46)        180.0            estimate D2E/DX2                !
 ! D168  D(26,27,45,62)          0.0            estimate D2E/DX2                !
 ! D169  D(14,28,29,30)          0.0            estimate D2E/DX2                !
 ! D170  D(14,28,29,66)        180.0            estimate D2E/DX2                !
 ! D171  D(42,28,29,30)        180.0            estimate D2E/DX2                !
 ! D172  D(42,28,29,66)          0.0            estimate D2E/DX2                !
 ! D173  D(14,28,42,41)          0.0            estimate D2E/DX2                !
 ! D174  D(14,28,42,49)        180.0            estimate D2E/DX2                !
 ! D175  D(29,28,42,41)        180.0            estimate D2E/DX2                !
 ! D176  D(29,28,42,49)          0.0            estimate D2E/DX2                !
 ! D177  D(28,29,30,15)          0.0            estimate D2E/DX2                !
 ! D178  D(28,29,30,43)        180.0            estimate D2E/DX2                !
 ! D179  D(66,29,30,15)        180.0            estimate D2E/DX2                !
 ! D180  D(66,29,30,43)          0.0            estimate D2E/DX2                !
 ! D181  D(15,30,43,44)          0.0            estimate D2E/DX2                !
 ! D182  D(15,30,43,65)        180.0            estimate D2E/DX2                !
 ! D183  D(29,30,43,44)        180.0            estimate D2E/DX2                !
 ! D184  D(29,30,43,65)          0.0            estimate D2E/DX2                !
 ! D185  D(11,31,32,33)          0.0            estimate D2E/DX2                !
 ! D186  D(11,31,32,51)        180.0            estimate D2E/DX2                !
 ! D187  D(40,31,32,33)        180.0            estimate D2E/DX2                !
 ! D188  D(40,31,32,51)          0.0            estimate D2E/DX2                !
 ! D189  D(11,31,40,39)          0.0            estimate D2E/DX2                !
 ! D190  D(11,31,40,52)        180.0            estimate D2E/DX2                !
 ! D191  D(32,31,40,39)        180.0            estimate D2E/DX2                !
 ! D192  D(32,31,40,52)          0.0            estimate D2E/DX2                !
 ! D193  D(31,32,33,12)          0.0            estimate D2E/DX2                !
 ! D194  D(31,32,33,41)        180.0            estimate D2E/DX2                !
 ! D195  D(51,32,33,12)        180.0            estimate D2E/DX2                !
 ! D196  D(51,32,33,41)          0.0            estimate D2E/DX2                !
 ! D197  D(12,33,41,42)          0.0            estimate D2E/DX2                !
 ! D198  D(12,33,41,50)        180.0            estimate D2E/DX2                !
 ! D199  D(32,33,41,42)        180.0            estimate D2E/DX2                !
 ! D200  D(32,33,41,50)          0.0            estimate D2E/DX2                !
 ! D201  D(8,34,35,36)           0.0            estimate D2E/DX2                !
 ! D202  D(8,34,35,54)         180.0            estimate D2E/DX2                !
 ! D203  D(38,34,35,36)        180.0            estimate D2E/DX2                !
 ! D204  D(38,34,35,54)          0.0            estimate D2E/DX2                !
 ! D205  D(8,34,38,37)           0.0            estimate D2E/DX2                !
 ! D206  D(8,34,38,55)         180.0            estimate D2E/DX2                !
 ! D207  D(35,34,38,37)        180.0            estimate D2E/DX2                !
 ! D208  D(35,34,38,55)          0.0            estimate D2E/DX2                !
 ! D209  D(34,35,36,9)           0.0            estimate D2E/DX2                !
 ! D210  D(34,35,36,39)        180.0            estimate D2E/DX2                !
 ! D211  D(54,35,36,9)         180.0            estimate D2E/DX2                !
 ! D212  D(54,35,36,39)          0.0            estimate D2E/DX2                !
 ! D213  D(9,36,39,40)           0.0            estimate D2E/DX2                !
 ! D214  D(9,36,39,53)         180.0            estimate D2E/DX2                !
 ! D215  D(35,36,39,40)        180.0            estimate D2E/DX2                !
 ! D216  D(35,36,39,53)          0.0            estimate D2E/DX2                !
 ! D217  D(5,37,38,34)           0.0            estimate D2E/DX2                !
 ! D218  D(5,37,38,55)         180.0            estimate D2E/DX2                !
 ! D219  D(56,37,38,34)        180.0            estimate D2E/DX2                !
 ! D220  D(56,37,38,55)          0.0            estimate D2E/DX2                !
 ! D221  D(36,39,40,31)          0.0            estimate D2E/DX2                !
 ! D222  D(36,39,40,52)        180.0            estimate D2E/DX2                !
 ! D223  D(53,39,40,31)        180.0            estimate D2E/DX2                !
 ! D224  D(53,39,40,52)          0.0            estimate D2E/DX2                !
 ! D225  D(33,41,42,28)          0.0            estimate D2E/DX2                !
 ! D226  D(33,41,42,49)        180.0            estimate D2E/DX2                !
 ! D227  D(50,41,42,28)        180.0            estimate D2E/DX2                !
 ! D228  D(50,41,42,49)          0.0            estimate D2E/DX2                !
 ! D229  D(30,43,44,25)          0.0            estimate D2E/DX2                !
 ! D230  D(30,43,44,64)        180.0            estimate D2E/DX2                !
 ! D231  D(65,43,44,25)        180.0            estimate D2E/DX2                !
 ! D232  D(65,43,44,64)          0.0            estimate D2E/DX2                !
 ! D233  D(27,45,46,22)          0.0            estimate D2E/DX2                !
 ! D234  D(27,45,46,61)        180.0            estimate D2E/DX2                !
 ! D235  D(62,45,46,22)        180.0            estimate D2E/DX2                !
 ! D236  D(62,45,46,61)          0.0            estimate D2E/DX2                !
 ! D237  D(24,47,48,3)           0.0            estimate D2E/DX2                !
 ! D238  D(24,47,48,58)        180.0            estimate D2E/DX2                !
 ! D239  D(59,47,48,3)         180.0            estimate D2E/DX2                !
 ! D240  D(59,47,48,58)          0.0            estimate D2E/DX2                !
 --------------------------------------------------------------------------------
 Trust Radius=3.00D-01 FncErr=1.00D-07 GrdErr=1.00D-06 EigMax=2.50D+02 EigMin=1.00D-04
 Number of steps in this run=    432 maximum allowed number of steps=    432.
 GradGradGradGradGradGradGradGradGradGradGradGradGradGradGradGradGradGrad

 Stoichiometry    C48H24
 Framework group  C2H[SGH(C48H24)]
 Deg. of freedom    71
 Full point group                 C2H     NOp   4
 Largest Abelian subgroup         C2H     NOp   4
 Largest concise Abelian subgroup C2      NOp   2
                         Standard orientation:                         
 ---------------------------------------------------------------------
 Center     Atomic      Atomic             Coordinates (Angstroms)
 Number     Number       Type             X           Y           Z
 ---------------------------------------------------------------------
      1          6           0        3.772350    0.725744    0.000000
      2          6           0        3.772353   -0.725748    0.000000
      3          6           0        5.151259   -1.148124    0.000000
      4          6           0        5.956194    0.000000    0.000000
      5          6           0        5.151269    1.148121    0.000000
      6          6           0        2.633742    1.520566    0.000000
      7          6           0        2.633737   -1.520574    0.000000
      8          6           0        2.514686    2.904041    0.000000
      9          6           0        1.257633    3.629755    0.000000
     10          6           0        0.000007    3.041107    0.000000
     11          6           0       -1.257629    3.629758    0.000000
     12          6           0       -2.514680    2.904040    0.000000
     13          6           0       -2.633737    1.520574    0.000000
     14          6           0       -3.772353    0.725748    0.000000
     15          6           0       -3.772350   -0.725744    0.000000
     16          6           0       -2.633742   -1.520566    0.000000
     17          6           0       -2.514686   -2.904041    0.000000
     18          6           0       -1.257633   -3.629755    0.000000
     19          6           0       -0.000007   -3.041107    0.000000
     20          6           0        1.257629   -3.629758    0.000000
     21          6           0        2.514680   -2.904040    0.000000
     22          6           0        1.581302   -5.035073    0.000000
     23          6           0        2.978104   -5.158149    0.000000
     24          6           0        3.569979   -3.886979    0.000000
     25          6           0       -3.569978   -3.886969    0.000000
     26          6           0       -2.978104   -5.158150    0.000000
     27          6           0       -1.581313   -5.035081    0.000000
     28          6           0       -5.151259    1.148124    0.000000
     29          6           0       -5.956194   -0.000000    0.000000
     30          6           0       -5.151269   -1.148121    0.000000
     31          6           0       -1.581302    5.035073    0.000000
     32          6           0       -2.978104    5.158149    0.000000
     33          6           0       -3.569979    3.886979    0.000000
     34          6           0        3.569978    3.886969    0.000000
     35          6           0        2.978104    5.158150    0.000000
     36          6           0        1.581313    5.035081    0.000000
     37          6           0        5.660737    2.480388    0.000000
     38          6           0        4.978506    3.662038    0.000000
     39          6           0        0.682227    6.142425    0.000000
     40          6           0       -0.682222    6.142423    0.000000
     41          6           0       -4.978506    3.662042    0.000000
     42          6           0       -5.660732    2.480390    0.000000
     43          6           0       -5.660737   -2.480388    0.000000
     44          6           0       -4.978506   -3.662038    0.000000
     45          6           0       -0.682227   -6.142425    0.000000
     46          6           0        0.682222   -6.142423    0.000000
     47          6           0        4.978506   -3.662042    0.000000
     48          6           0        5.660732   -2.480390    0.000000
     49          1           0       -6.747148    2.552188    0.000000
     50          1           0       -5.583904    4.567002    0.000000
     51          1           0       -3.520421    6.097472    0.000000
     52          1           0       -1.163232    7.119199    0.000000
     53          1           0        1.163232    7.119204    0.000000
     54          1           0        3.520434    6.097467    0.000000
     55          1           0        5.583901    4.567001    0.000000
     56          1           0        6.747152    2.552191    0.000000
     57          1           0        7.040819   -0.000005    0.000000
     58          1           0        6.747148   -2.552188    0.000000
     59          1           0        5.583904   -4.567002    0.000000
     60          1           0        3.520421   -6.097472    0.000000
     61          1           0        1.163232   -7.119199    0.000000
     62          1           0       -1.163232   -7.119204    0.000000
     63          1           0       -3.520434   -6.097467    0.000000
     64          1           0       -5.583901   -4.567001    0.000000
     65          1           0       -6.747152   -2.552191    0.000000
     66          1           0       -7.040819    0.000005    0.000000
     67          1           0       -1.691933    0.976664    0.000000
     68          1           0        0.000005    1.953490    0.000000
     69          1           0        1.691936    0.976661    0.000000
     70          1           0        1.691933   -0.976664    0.000000
     71          1           0       -0.000005   -1.953490    0.000000
     72          1           0       -1.691936   -0.976661    0.000000
 ---------------------------------------------------------------------
 Rotational constants (GHZ):           0.0639394           0.0639368           0.0319690
 Standard basis: 6-311++G(d,p) (5D, 7F)
 There are   480 symmetry adapted cartesian basis functions of AG  symmetry.
 There are   156 symmetry adapted cartesian basis functions of BG  symmetry.
 There are   156 symmetry adapted cartesian basis functions of AU  symmetry.
 There are   480 symmetry adapted cartesian basis functions of BU  symmetry.
 There are   456 symmetry adapted basis functions of AG  symmetry.
 There are   156 symmetry adapted basis functions of BG  symmetry.
 There are   156 symmetry adapted basis functions of AU  symmetry.
 There are   456 symmetry adapted basis functions of BU  symmetry.
  1224 basis functions,  1944 primitive gaussians,  1272 cartesian basis functions
   156 alpha electrons      156 beta electrons
       nuclear repulsion energy      5126.1765808642 Hartrees.
 NAtoms=   72 NActive=   72 NUniq=   36 SFac= 4.00D+00 NAtFMM=   60 NAOKFM=T Big=F
 Integral buffers will be    131072 words long.
 Raffenetti 2 integral format.
 Two-electron integral symmetry is turned on.
 Nuclear repulsion after empirical dispersion term =     5126.1093974257 Hartrees.
 One-electron integrals computed using PRISM.
 PrsmSu:  requested number of processors reduced to:  16 ShMem   1 Linda.
 PrsmSu:  requested number of processors reduced to:  36 ShMem   1 Linda.
 NBasis=  1224 RedAO= T EigKep=  1.12D-06  NBF=   456   156   156   456
 NBsUse=  1174 1.00D-06 EigRej=  9.82D-07 NBFU=   431   156   156   431
 ExpMin= 3.60D-02 ExpMax= 4.56D+03 ExpMxC= 6.82D+02 IAcc=3 IRadAn=         5 AccDes= 0.00D+00
 Harris functional with IExCor= 4639 and IRadAn=       5 diagonalized for initial guess.
 HarFok:  IExCor= 4639 AccDes= 0.00D+00 IRadAn=         5 IDoV= 1 UseB2=F ITyADJ=14
 ICtDFT=  3500011 ScaDFX=  1.000000  1.000000  1.000000  1.000000
 CalDSu:  requested number of processors reduced to:  35 ShMem   1 Linda.
 FoFCou: FMM=F IPFlag=           0 FMFlag=      100000 FMFlg1=        2000
         NFxFlg=           0 DoJE=T BraDBF=F KetDBF=T FulRan=T
         wScrn=  0.000000 ICntrl=       500 IOpCl=  0 I1Cent=   200000004 NGrid=           0
         NMat0=    1 NMatS0=      1 NMatT0=    0 NMatD0=    1 NMtDS0=    0 NMtDT0=    0
 Petite list used in FoFCou.
 CoulSu:  requested number of processors reduced to:  34 ShMem   1 Linda.
 CoulSu:  requested number of processors reduced to:  34 ShMem   1 Linda.
 Initial guess orbital symmetries:
       Occupied  (BU) (AG) (AG) (BU) (BU) (AG) (BU) (AG) (AG) (BU)
                 (BU) (AG) (AG) (BU) (BU) (AG) (AG) (BU) (BU) (AG)
                 (AG) (BU) (AG) (BU) (AG) (BU) (BU) (BU) (AG) (AG)
                 (BU) (AG) (AG) (BU) (BU) (AG) (AG) (AG) (BU) (BU)
                 (BU) (AG) (AG) (BU) (BU) (BU) (AG) (AG) (AG) (BU)
                 (BU) (AG) (AG) (BU) (BU) (AG) (AG) (AG) (BU) (BU)
                 (BU) (BU) (AG) (AG) (AG) (BU) (AG) (BU) (BU) (BU)
                 (AG) (AG) (AG) (AG) (BU) (BU) (BU) (AG) (BU) (BU)
                 (BU) (AG) (AG) (AG) (AG) (AG) (AG) (BU) (BU) (BU)
                 (BU) (BU) (BU) (AG) (AG) (AG) (AG) (AG) (AG) (BU)
                 (BU) (BU) (BU) (BU) (AG) (AG) (AG) (AG) (BU) (BU)
                 (BU) (AU) (AG) (BG) (BG) (AG) (AG) (BU) (BU) (BU)
                 (BU) (AU) (AU) (AG) (AG) (BG) (BU) (BU) (AG) (AG)
                 (AG) (AG) (BG) (BU) (BU) (BU) (BU) (AG) (AG) (AU)
                 (AU) (AU) (BG) (BG) (AU) (AU) (BG) (BG) (BG) (AU)
                 (AU) (BG) (BG) (BG) (AU) (AU)
       Virtual   (AU) (AU) (BG) (BG) (BG) (BG) (AU) (AU) (AU) (AG)
                 (BU) (BU) (AU) (AG) (AG) (AG) (BG) (BG) (BU) (BU)
                 (AG) (AG) (BU) (BU) (BU) (BU) (AG) (AU) (AU) (BG)
                 (BG) (AG) (AG) (AG) (AG) (AU) (AU) (BG) (BU) (BU)
                 (AG) (BG) (BG) (BU) (BG) (BU) (AU) (AU) (AG) (AG)
                 (BU) (BU) (AG) (BU) (AG) (AG) (BU) (BU) (AU) (BG)
                 (BG) (BU) (AU) (AU) (AG) (AG) (AU) (AG) (AG) (BU)
                 (BU) (BU) (AU) (BG) (BG) (AG) (AG) (BU) (BG) (AG)
                 (AG) (BU) (BU) (BG) (BG) (AU) (AU) (AG) (BG) (BU)
                 (BU) (AU) (AG) (AG) (AU) (AU) (BG) (BU) (BU) (AU)
                 (BG) (BG) (BU) (BU) (BU) (AG) (AG) (BG) (BU) (BU)
                 (BU) (AU) (AU) (AG) (BG) (BG) (AG) (AG) (AG) (AG)
                 (BU) (BU) (AG) (AG) (AU) (AU) (AU) (AG) (AG) (AG)
                 (BU) (AG) (BU) (BU) (BU) (BU) (AG) (AG) (AG) (AU)
                 (AU) (BU) (BU) (BU) (BG) (BG) (BU) (AG) (AG) (BU)
                 (BU) (AG) (BG) (BG) (BG) (BG) (AG) (BU) (AG) (AG)
                 (AU) (BU) (BU) (BG) (AG) (AG) (AG) (BU) (BU) (BU)
                 (BU) (BU) (AG) (AG) (AU) (AU) (BU) (AG) (BU) (AG)
                 (AG) (BU) (BU) (BU) (BU) (AG) (AG) (AG) (AG) (AG)
                 (BU) (AG) (BU) (BU) (AG) (AU) (AU) (BG) (BG) (BG)
                 (BU) (BU) (AG) (AG) (AG) (BU) (BU) (AG) (BU) (BU)
                 (BU) (BU) (AG) (AG) (BU) (BU) (AG) (AG) (AG) (BU)
                 (AG) (AG) (AG) (AG) (AG) (AU) (AG) (BU) (BU) (BU)
                 (AG) (AG) (BU) (BU) (AG) (AG) (AG) (BU) (AG) (BU)
                 (BU) (BU) (BU) (BU) (BU) (AG) (AG) (BU) (BU) (BU)
                 (AG) (AG) (BU) (BU) (AG) (BU) (AU) (BG) (BG) (AG)
                 (BU) (AG) (AG) (AU) (AU) (BU) (AG) (BG) (AG) (AG)
                 (AG) (BG) (BU) (BU) (AU) (BU) (AG) (BU) (BU) (BG)
                 (BG) (AG) (AG) (AU) (AU) (AG) (AG) (AG) (BU) (BU)
                 (BU) (BU) (AU) (AU) (AU) (BG) (BG) (BU) (BU) (BU)
                 (AG) (AG) (BG) (AG) (AG) (AG) (AU) (AG) (AG) (BG)
                 (BG) (BU) (BU) (BU) (BU) (BG) (AG) (BU) (BU) (AG)
                 (AU) (AU) (AU) (AG) (AG) (BG) (BG) (AU) (AU) (BU)
                 (BU) (BU) (AG) (BG) (AU) (AU) (BU) (AG) (BG) (BG)
                 (BG) (BG) (AU) (AG) (AU) (AU) (BU) (BU) (BU) (BG)
                 (AG) (AG) (BU) (BU) (AG) (AG) (BG) (BG) (BU) (BU)
                 (BU) (AG) (AU) (AU) (AU) (AG) (AG) (BU) (BU) (BU)
                 (AG) (AG) (AG) (BG) (BG) (BU) (BU) (AG) (BU) (AG)
                 (AG) (AU) (BU) (AG) (AG) (AG) (AG) (BU) (BU) (AG)
                 (BU) (BU) (BU) (AG) (BU) (BU) (BU) (AG) (AG) (AG)
                 (AG) (BU) (BU) (AG) (AG) (BU) (BU) (AG) (AG) (BU)
                 (AU) (AU) (AU) (AG) (BU) (BG) (BG) (BG) (BU) (BU)
                 (AG) (AG) (BU) (BU) (BU) (AG) (AG) (AG) (AG) (BU)
                 (BU) (AG) (AG) (AU) (BU) (AU) (AU) (AG) (AG) (BU)
                 (AG) (AG) (BG) (BG) (BU) (BU) (BG) (BU) (AU) (BG)
                 (BG) (AU) (AG) (BG) (BG) (AU) (AU) (BU) (BU) (BG)
                 (BU) (BU) (BG) (AU) (AU) (AG) (AG) (AG) (AU) (AU)
                 (BG) (BG) (BU) (AU) (BG) (AG) (AG) (AG) (BG) (AU)
                 (AU) (BU) (BU) (BU) (AG) (AG) (BG) (BG) (AU) (BU)
                 (AG) (BU) (BU) (AG) (AG) (BU) (BU) (BU) (AG) (AG)
                 (AG) (BU) (BU) (AG) (BU) (BU) (AG) (AG) (AG) (BU)
                 (BU) (AG) (AG) (BU) (BU) (BU) (AG) (AG) (AG) (BU)
                 (AG) (BG) (BU) (BU) (AG) (BU) (BU) (AU) (AU) (AG)
                 (AG) (BG) (BU) (AU) (BG) (BG) (BG) (BG) (AU) (AU)
                 (BU) (AU) (AG) (AG) (BU) (BU) (AG) (AG) (AG) (AU)
                 (BG) (BG) (AG) (AG) (BU) (AG) (BU) (BU) (BU) (AG)
                 (AG) (AG) (BU) (BU) (AU) (AU) (AU) (BG) (BG) (BG)
                 (AU) (AU) (BU) (AG) (AG) (BG) (BU) (BU) (AG) (BU)
                 (BU) (BU) (AU) (BG) (BG) (BU) (AU) (AU) (AG) (AG)
                 (BG) (AG) (AG) (AG) (BG) (AU) (AU) (AG) (BU) (BU)
                 (BU) (BU) (BG) (BG) (AU) (BU) (BU) (AG) (AG) (BG)
                 (AU) (BG) (BG) (AG) (AU) (AU) (AG) (AG) (BU) (BU)
                 (BU) (BU) (AG) (AG) (AG) (AU) (BG) (BG) (BU) (BU)
                 (AU) (AU) (BU) (BU) (AG) (AG) (BG) (BG) (AG) (BG)
                 (AG) (AG) (BU) (BU) (BU) (BU) (AG) (AG) (AU) (AU)
                 (AU) (BG) (BG) (AU) (BU) (BU) (BU) (AU) (AU) (AG)
                 (AG) (BU) (AG) (AG) (AG) (AG) (BU) (BU) (BG) (BG)
                 (BG) (BG) (BU) (BU) (AG) (AU) (AG) (AG) (AU) (AU)
                 (BU) (BU) (AG) (BG) (AG) (AG) (BU) (BU) (AG) (AG)
                 (BU) (BU) (BU) (AG) (BG) (BU) (AU) (AG) (AG) (BG)
                 (BG) (BU) (BU) (AU) (AU) (AG) (AG) (AG) (AG) (BU)
                 (BU) (BU) (AU) (BU) (BU) (AG) (BG) (BG) (BU) (AG)
                 (AG) (BU) (BU) (AU) (AU) (AG) (BG) (AG) (AG) (BU)
                 (BU) (BU) (AG) (BU) (AG) (AG) (BG) (AU) (AU) (AG)
                 (BG) (BG) (BU) (BU) (AG) (AG) (BU) (AG) (BU) (BU)
                 (AU) (AG) (AG) (BU) (AG) (AG) (BU) (BU) (AU) (BG)
                 (BG) (BU) (AU) (AU) (AG) (AG) (BG) (BU) (BU) (AG)
                 (AG) (BU) (BU) (BU) (BG) (AG) (AG) (AU) (AU) (AG)
                 (AU) (AG) (BU) (BU) (BU) (BG) (BG) (AG) (AG) (BU)
                 (AG) (AG) (AG) (BU) (BU) (BU) (BU) (BG) (BG) (AU)
                 (AU) (AU) (AG) (AG) (AG) (BU) (BU) (BG) (BU) (BU)
                 (AG) (BU) (BU) (AG) (AG) (AG) (BU) (BU) (AU) (BG)
                 (BG) (BG) (AG) (AG) (AU) (AU) (AG) (AU) (AU) (AU)
                 (BG) (BG) (BG) (AG) (AG) (BG) (BU) (BU) (BG) (BG)
                 (AU) (AU) (AU) (AU) (AU) (BU) (BU) (BG) (AU) (BG)
                 (BG) (BG) (AU) (AU) (AG) (AG) (AG) (BU) (BG) (BG)
                 (BU) (BU) (BU) (AG) (AU) (AG) (AG) (BU) (BU) (BU)
                 (AG) (AG) (AG) (BU) (AG) (AG) (AG) (BU) (BU) (BU)
                 (BU) (AG) (AG) (AG) (AG) (AG) (BU) (BU) (BU) (BU)
                 (BU) (BU) (BU) (BU) (AG) (AG) (AG) (AG) (AG) (BU)
                 (BU) (AG) (AG) (BU) (BU) (AG) (AG) (AG) (BU) (BU)
                 (AG) (AG) (BU) (BU) (BU) (AG) (AG) (BU) (AG) (AG)
                 (BU) (BU) (BU) (BU) (AG) (AG) (BU) (AG) (AG) (BU)
                 (BU) (BU) (AG) (AG) (AG) (AG) (BU) (BU) (BU) (AG)
                 (AG) (BU) (BU) (AG) (AG) (AG) (BU) (BU) (BU) (AG)
                 (AG) (BU) (BU) (AG) (AG) (BU) (BU) (BU) (BU) (AG)
                 (AG) (AG) (BU) (AG) (BU) (AG) (AG) (BU) (BU) (AG)
                 (AG) (BU) (BU) (AG) (AG) (BU) (BU) (AG) (BU) (BU)
                 (AG) (AG) (AG) (AG) (BU) (BU) (BU) (AG) (BU) (AG)
                 (AG) (BU) (BU) (AG) (AG) (AG) (BU) (BU) (BU) (AG)
                 (AG) (BU) (BU) (AG) (AG) (BU) (AG) (BU) (BU) (AG)
                 (AG) (BU) (BU) (AG) (AG) (BU) (BU) (AG)
 The electronic state of the initial guess is 1-AG.
 Requested convergence on RMS density matrix=1.00D-08 within 128 cycles.
 Requested convergence on MAX density matrix=1.00D-06.
 Requested convergence on             energy=1.00D-06.
 No special actions if energy rises.
 CoulSu:  requested number of processors reduced to:  34 ShMem   1 Linda.
 CoulSu:  requested number of processors reduced to:  35 ShMem   1 Linda.
 CoulSu:  requested number of processors reduced to:  35 ShMem   1 Linda.
 CalDSu:  requested number of processors reduced to:  35 ShMem   1 Linda.
 CoulSu:  requested number of processors reduced to:  35 ShMem   1 Linda.
 CoulSu:  requested number of processors reduced to:  36 ShMem   1 Linda.
 CoulSu:  requested number of processors reduced to:  35 ShMem   1 Linda.
 CalDSu:  requested number of processors reduced to:  36 ShMem   1 Linda.
 CoulSu:  requested number of processors reduced to:  35 ShMem   1 Linda.
 CoulSu:  requested number of processors reduced to:  36 ShMem   1 Linda.
 CoulSu:  requested number of processors reduced to:  36 ShMem   1 Linda.
 CalDSu:  requested number of processors reduced to:  35 ShMem   1 Linda.
 CoulSu:  requested number of processors reduced to:  35 ShMem   1 Linda.
 CoulSu:  requested number of processors reduced to:  36 ShMem   1 Linda.
 CoulSu:  requested number of processors reduced to:  36 ShMem   1 Linda.
 CalDSu:  requested number of processors reduced to:  35 ShMem   1 Linda.
 CoulSu:  requested number of processors reduced to:  36 ShMem   1 Linda.
 CoulSu:  requested number of processors reduced to:  37 ShMem   1 Linda.
 CoulSu:  requested number of processors reduced to:  36 ShMem   1 Linda.
 CalDSu:  requested number of processors reduced to:  35 ShMem   1 Linda.
 CoulSu:  requested number of processors reduced to:  36 ShMem   1 Linda.
 CoulSu:  requested number of processors reduced to:  37 ShMem   1 Linda.
 CoulSu:  requested number of processors reduced to:  36 ShMem   1 Linda.
 CalDSu:  requested number of processors reduced to:  35 ShMem   1 Linda.
 CoulSu:  requested number of processors reduced to:  36 ShMem   1 Linda.
 CoulSu:  requested number of processors reduced to:  38 ShMem   1 Linda.
 CoulSu:  requested number of processors reduced to:  37 ShMem   1 Linda.
 CalDSu:  requested number of processors reduced to:  35 ShMem   1 Linda.
 CoulSu:  requested number of processors reduced to:  37 ShMem   1 Linda.
 CoulSu:  requested number of processors reduced to:  38 ShMem   1 Linda.
 CoulSu:  requested number of processors reduced to:  37 ShMem   1 Linda.
 CalDSu:  requested number of processors reduced to:  35 ShMem   1 Linda.
 CoulSu:  requested number of processors reduced to:  37 ShMem   1 Linda.
 CoulSu:  requested number of processors reduced to:  39 ShMem   1 Linda.
 CoulSu:  requested number of processors reduced to:  37 ShMem   1 Linda.
 CalDSu:  requested number of processors reduced to:  35 ShMem   1 Linda.
 CoulSu:  requested number of processors reduced to:  38 ShMem   1 Linda.
 CoulSu:  requested number of processors reduced to:  39 ShMem   1 Linda.
 CoulSu:  requested number of processors reduced to:  37 ShMem   1 Linda.
 CalDSu:  requested number of processors reduced to:  35 ShMem   1 Linda.
 CoulSu:  requested number of processors reduced to:  39 ShMem   1 Linda.
 CoulSu:  requested number of processors reduced to:  38 ShMem   1 Linda.
 CalDSu:  requested number of processors reduced to:  35 ShMem   1 Linda.
 CoulSu:  requested number of processors reduced to:  39 ShMem   1 Linda.
 CoulSu:  requested number of processors reduced to:  38 ShMem   1 Linda.
 CalDSu:  requested number of processors reduced to:  35 ShMem   1 Linda.
 CoulSu:  requested number of processors reduced to:  39 ShMem   1 Linda.
 CoulSu:  requested number of processors reduced to:  38 ShMem   1 Linda.
 CalDSu:  requested number of processors reduced to:  35 ShMem   1 Linda.
 CoulSu:  requested number of processors reduced to:  39 ShMem   1 Linda.
 CalDSu:  requested number of processors reduced to:  35 ShMem   1 Linda.
 CoulSu:  requested number of processors reduced to:  39 ShMem   1 Linda.
 CalDSu:  requested number of processors reduced to:  35 ShMem   1 Linda.
 SCF Done:  E(RwB97XD) =  -1843.24583398     A.U. after   15 cycles
            NFock= 15  Conv=0.72D-08     -V/T= 2.0044

 **********************************************************************

            Population analysis using the SCF density.

 **********************************************************************

 Orbital symmetries:
       Occupied  (BU) (AG) (AG) (BU) (BU) (AG) (AG) (BU) (BU) (AG)
                 (AG) (BU) (BU) (AG) (AG) (BU) (BU) (AG) (BU) (AG)
                 (AG) (AG) (BU) (BU) (AG) (BU) (BU) (AG) (AG) (BU)
                 (BU) (AG) (AG) (BU) (BU) (AG) (AG) (BU) (BU) (AG)
                 (AG) (BU) (BU) (AG) (AG) (BU) (AG) (BU) (AG) (BU)
                 (BU) (AG) (AG) (BU) (BU) (AG) (AG) (AG) (BU) (BU)
                 (BU) (BU) (AG) (AG) (BU) (AG) (AG) (BU) (BU) (BU)
                 (AG) (AG) (AG) (AG) (BU) (BU) (BU) (AG) (BU) (BU)
                 (BU) (AG) (AG) (AG) (AG) (AG) (AG) (BU) (BU) (BU)
                 (BU) (BU) (BU) (AG) (AG) (AG) (AG) (BU) (BU) (AG)
                 (AG) (BU) (BU) (BU) (AG) (AG) (AG) (AG) (BU) (AU)
                 (BG) (BG) (BU) (BU) (AG) (AU) (AU) (AG) (AG) (BU)
                 (BU) (BU) (BU) (AG) (AG) (BG) (BU) (BU) (AG) (AG)
                 (AG) (AG) (BG) (BU) (BU) (BU) (BU) (AG) (AG) (AU)
                 (AU) (AU) (BG) (BG) (AU) (AU) (BG) (BG) (BG) (AU)
                 (AU) (BG) (BG) (BG) (AU) (AU)
       Virtual   (AU) (AU) (BG) (BG) (BG) (BG) (AU) (AG) (BU) (BU)
                 (AG) (AG) (AG) (AU) (AU) (AU) (BU) (BU) (BG) (BG)
                 (AG) (AG) (BU) (BU) (BU) (BU) (AG) (AG) (AG) (AU)
                 (AU) (BG) (BG) (AG) (AG) (AU) (AU) (BU) (BU) (BG)
                 (AG) (BU) (BG) (AG) (AG) (BG) (BG) (AU) (AU) (BU)
                 (AG) (BU) (BU) (BU) (AG) (AG) (BU) (BU) (BU) (BG)
                 (BG) (AU) (AG) (AG) (BU) (AU) (AU) (BU) (BU) (AG)
                 (AG) (AU) (BU) (AG) (AG) (AG) (AG) (BU) (BU) (AG)
                 (AU) (BG) (BG) (BU) (BU) (BG) (AG) (AG) (BG) (BU)
                 (BU) (BG) (BG) (BU) (AU) (AU) (AU) (BU) (BU) (AU)
                 (BG) (BG) (BU) (BG) (AG) (AG) (AG) (AU) (AU) (BG)
                 (BG) (AU) (AU) (AG) (AG) (AG) (AG) (BU) (BU) (BG)
                 (BU) (BU) (AG) (AG) (AU) (AU) (AU) (BU) (AG) (BU)
                 (BU) (AG) (AG) (AG) (BU) (BU) (AU) (AU) (AG) (AG)
                 (AG) (BU) (BU) (BG) (BG) (BU) (BU) (AG) (AG) (BU)
                 (BU) (AG) (BG) (BG) (BG) (BG) (AG) (AU) (BG) (AG)
                 (AG) (BU) (BU) (BU) (AG) (AG) (AG) (BU) (BU) (BU)
                 (BU) (AG) (AG) (AU) (AU) (BU) (BU) (BU) (AG) (BU)
                 (AG) (AG) (BU) (BU) (AG) (BU) (AG) (AG) (AG) (AG)
                 (BU) (BU) (BG) (BG) (BG) (AU) (AU) (AG) (AG) (BU)
                 (BU) (BU) (AG) (AG) (BU) (BU) (AG) (BU) (BU) (BU)
                 (BU) (AG) (AG) (AG) (AG) (AG) (AG) (AG) (AG) (BU)
                 (BU) (AU) (BU) (BU) (AG) (AG) (AG) (AG) (AG) (BU)
                 (BU) (AG) (BU) (BU) (AG) (AG) (AG) (BU) (BU) (BU)
                 (BU) (AG) (BU) (BU) (BU) (AG) (AG) (BU) (AG) (AG)
                 (BU) (BU) (AG) (BU) (BU) (BU) (AU) (BU) (AG) (BG)
                 (BG) (AU) (AU) (AG) (AG) (BU) (AG) (BG) (AG) (AG)
                 (AG) (BU) (BU) (BG) (AU) (AG) (BG) (BG) (BU) (BU)
                 (BU) (AU) (AU) (AG) (AG) (AG) (AG) (AG) (BU) (BU)
                 (BU) (AU) (AU) (AU) (BG) (BG) (BU) (BU) (BU) (BG)
                 (BU) (AG) (AG) (AG) (AU) (AG) (AG) (BG) (BG) (BG)
                 (BU) (BU) (AG) (BU) (BU) (AG) (AG) (BU) (BU) (AU)
                 (AU) (AU) (AG) (BG) (BG) (AU) (AU) (AG) (AG) (BG)
                 (BU) (BU) (AU) (AU) (BU) (AG) (BG) (AG) (BG) (BG)
                 (BG) (BU) (AU) (BG) (AU) (AU) (AG) (BU) (BU) (BU)
                 (BG) (BG) (BU) (AG) (AG) (AU) (AU) (AG) (AG) (BU)
                 (BU) (AU) (BU) (BU) (AG) (AG) (AG) (BG) (BG) (BU)
                 (BU) (BU) (AG) (BU) (BU) (AG) (AG) (AG) (BU) (AG)
                 (AG) (AU) (BU) (AG) (AG) (BU) (BU) (AG) (AG) (AG)
                 (BU) (BU) (BU) (BU) (AG) (BU) (BU) (AG) (AG) (AG)
                 (AG) (BU) (BU) (AG) (AG) (BU) (BU) (AG) (AG) (BU)
                 (AG) (BU) (AU) (BU) (BU) (AU) (AU) (AG) (AG) (BG)
                 (BG) (BG) (BU) (BU) (BU) (AG) (BU) (BU) (AG) (AG)
                 (AG) (AG) (AG) (BU) (AU) (AG) (AG) (AG) (AU) (AU)
                 (BU) (AG) (BU) (BU) (BU) (BG) (BG) (BG) (AU) (BG)
                 (BG) (AG) (BU) (BU) (AU) (BU) (BU) (BG) (BG) (AU)
                 (AU) (AG) (AG) (AG) (BG) (BG) (AU) (AU) (BU) (AG)
                 (AG) (AU) (AU) (BG) (BG) (BG) (AU) (AG) (BU) (BU)
                 (BG) (BU) (AG) (AG) (AU) (AU) (BG) (BG) (AU) (BU)
                 (AG) (BU) (BU) (AG) (AG) (BU) (BU) (BU) (AG) (AG)
                 (AG) (AG) (BU) (BU) (AG) (BU) (BU) (AG) (AG) (BU)
                 (BU) (AG) (AG) (BU) (BU) (AG) (AG) (BU) (BU) (AG)
                 (AG) (BG) (BU) (BU) (AG) (AU) (AU) (BU) (BU) (AG)
                 (AG) (BG) (BU) (BG) (BG) (AU) (AU) (AU) (BG) (BG)
                 (BU) (AG) (AG) (AU) (BU) (BU) (AG) (AG) (AG) (AU)
                 (AG) (BG) (BG) (AG) (AG) (BU) (BU) (BU) (BU) (AG)
                 (AU) (AU) (AU) (BU) (BU) (BG) (BG) (BG) (AG) (AG)
                 (BU) (AU) (AU) (AG) (AG) (BG) (BU) (BU) (AG) (BU)
                 (BU) (AU) (BG) (BG) (BU) (BU) (AU) (AU) (AG) (AG)
                 (BG) (AG) (BG) (AG) (AG) (AU) (AU) (BU) (BU) (AG)
                 (BU) (BG) (BG) (BU) (AU) (BG) (BU) (BU) (AG) (AG)
                 (AU) (AU) (BG) (BG) (AG) (AU) (AG) (AG) (BU) (BU)
                 (BU) (BU) (AG) (AG) (AU) (AG) (BG) (BG) (BU) (BU)
                 (AU) (AU) (AG) (BU) (BU) (AG) (BG) (BG) (AG) (AG)
                 (AG) (BG) (BU) (BU) (BU) (BU) (AG) (AG) (AU) (AU)
                 (AU) (AU) (BG) (BG) (BU) (BU) (AG) (AG) (BU) (AU)
                 (AU) (BU) (AG) (AG) (AG) (AG) (BU) (BU) (BG) (BG)
                 (BG) (BG) (AG) (AG) (AG) (BU) (BU) (AU) (AU) (AU)
                 (BU) (BU) (AG) (AG) (AG) (BG) (BU) (BU) (AG) (AG)
                 (BU) (BU) (BU) (AG) (BG) (BU) (AG) (AG) (AU) (BG)
                 (BG) (AG) (BU) (BU) (AU) (AU) (AG) (AG) (AG) (BU)
                 (BU) (BU) (AU) (BG) (BG) (BU) (BU) (BU) (AG) (AG)
                 (AG) (BU) (BU) (AU) (AU) (AG) (BG) (AG) (AG) (BU)
                 (AG) (BU) (BU) (BU) (AG) (AG) (BG) (AU) (AU) (AG)
                 (BG) (BG) (BU) (BU) (AG) (AG) (BU) (AG) (BU) (BU)
                 (AU) (AG) (AG) (BU) (AG) (BU) (BU) (AG) (AU) (BU)
                 (BG) (BG) (AG) (AG) (BU) (BU) (AU) (AU) (BG) (AG)
                 (AG) (BU) (BU) (BU) (AG) (AG) (AG) (BU) (BU) (BG)
                 (AG) (AG) (AG) (BU) (BU) (AU) (AU) (AU) (AG) (BG)
                 (BG) (BU) (BU) (BU) (AG) (AG) (AG) (AG) (BU) (AG)
                 (BU) (BU) (BG) (BG) (BU) (BU) (AU) (AU) (AU) (AG)
                 (AG) (AG) (BU) (BU) (BU) (BG) (AG) (BU) (AU) (BG)
                 (AG) (AG) (BG) (BG) (AU) (AU) (AG) (AU) (AU) (AU)
                 (AG) (AG) (BG) (BG) (BG) (BG) (BU) (BU) (BG) (BG)
                 (AU) (AU) (AU) (AU) (AU) (BU) (BU) (BU) (BG) (AU)
                 (BG) (BG) (BG) (AU) (AU) (AG) (AG) (AG) (BG) (BG)
                 (BU) (BU) (BU) (AU) (AG) (AG) (AG) (BU) (BU) (BU)
                 (AG) (AG) (AG) (BU) (AG) (AG) (AG) (BU) (BU) (BU)
                 (BU) (AG) (AG) (AG) (AG) (AG) (BU) (BU) (BU) (BU)
                 (BU) (BU) (BU) (BU) (AG) (AG) (AG) (AG) (AG) (BU)
                 (BU) (AG) (AG) (BU) (BU) (AG) (AG) (AG) (BU) (BU)
                 (AG) (AG) (BU) (BU) (BU) (AG) (AG) (BU) (AG) (AG)
                 (BU) (BU) (BU) (BU) (AG) (AG) (BU) (AG) (AG) (BU)
                 (BU) (BU) (AG) (AG) (AG) (AG) (BU) (BU) (BU) (AG)
                 (AG) (BU) (BU) (AG) (AG) (AG) (BU) (BU) (BU) (AG)
                 (AG) (BU) (BU) (AG) (AG) (BU) (BU) (BU) (BU) (AG)
                 (AG) (AG) (BU) (AG) (BU) (AG) (AG) (BU) (BU) (AG)
                 (AG) (BU) (BU) (AG) (AG) (BU) (AG) (BU) (BU) (BU)
                 (AG) (AG) (AG) (AG) (BU) (BU) (BU) (AG) (BU) (AG)
                 (AG) (BU) (BU) (AG) (AG) (AG) (BU) (BU) (BU) (AG)
                 (AG) (BU) (BU) (AG) (AG) (BU) (AG) (BU) (BU) (AG)
                 (AG) (BU) (BU) (AG) (AG) (BU) (BU) (AG)
 The electronic state is 1-AG.
 Alpha  occ. eigenvalues --  -10.32566 -10.32566 -10.32566 -10.32565 -10.32565
 Alpha  occ. eigenvalues --  -10.32564 -10.31151 -10.31151 -10.31151 -10.31151
 Alpha  occ. eigenvalues --  -10.31150 -10.31150 -10.31150 -10.31150 -10.31150
 Alpha  occ. eigenvalues --  -10.31150 -10.31149 -10.31149 -10.30913 -10.30913
 Alpha  occ. eigenvalues --  -10.30913 -10.30913 -10.30913 -10.30913 -10.30843
 Alpha  occ. eigenvalues --  -10.30843 -10.30843 -10.30843 -10.30843 -10.30843
 Alpha  occ. eigenvalues --  -10.30654 -10.30654 -10.30654 -10.30653 -10.30653
 Alpha  occ. eigenvalues --  -10.30652 -10.30616 -10.30616 -10.30616 -10.30615
 Alpha  occ. eigenvalues --  -10.30615 -10.30615 -10.28229 -10.28229 -10.28229
 Alpha  occ. eigenvalues --  -10.28229 -10.28228 -10.28228  -1.01307  -1.00777
 Alpha  occ. eigenvalues --   -1.00777  -0.99440  -0.99440  -0.98429  -0.93983
 Alpha  occ. eigenvalues --   -0.92481  -0.92481  -0.91923  -0.91257  -0.91256
 Alpha  occ. eigenvalues --   -0.89385  -0.89385  -0.89106  -0.89106  -0.87085
 Alpha  occ. eigenvalues --   -0.86750  -0.84766  -0.83506  -0.81728  -0.81727
 Alpha  occ. eigenvalues --   -0.80483  -0.80483  -0.77386  -0.77386  -0.75575
 Alpha  occ. eigenvalues --   -0.75575  -0.73688  -0.73408  -0.72274  -0.70472
 Alpha  occ. eigenvalues --   -0.70472  -0.69688  -0.69614  -0.69613  -0.66048
 Alpha  occ. eigenvalues --   -0.66048  -0.66029  -0.65644  -0.63350  -0.63349
 Alpha  occ. eigenvalues --   -0.61841  -0.60801  -0.60800  -0.59985  -0.59984
 Alpha  occ. eigenvalues --   -0.59113  -0.58001  -0.57873  -0.57872  -0.57322
 Alpha  occ. eigenvalues --   -0.57322  -0.55691  -0.55133  -0.55133  -0.54205
 Alpha  occ. eigenvalues --   -0.53908  -0.53907  -0.53474  -0.52597  -0.51960
 Alpha  occ. eigenvalues --   -0.51191  -0.51191  -0.50801  -0.50800  -0.49275
 Alpha  occ. eigenvalues --   -0.49109  -0.49109  -0.48787  -0.48787  -0.48729
 Alpha  occ. eigenvalues --   -0.48278  -0.48277  -0.48144  -0.47470  -0.47470
 Alpha  occ. eigenvalues --   -0.47005  -0.45508  -0.45508  -0.45182  -0.45182
 Alpha  occ. eigenvalues --   -0.44771  -0.44675  -0.44300  -0.43510  -0.43510
 Alpha  occ. eigenvalues --   -0.42555  -0.42223  -0.41880  -0.41879  -0.41735
 Alpha  occ. eigenvalues --   -0.41572  -0.41572  -0.40949  -0.40949  -0.37918
 Alpha  occ. eigenvalues --   -0.37918  -0.36568  -0.36568  -0.35202  -0.31613
 Alpha  occ. eigenvalues --   -0.30763  -0.29225  -0.25293  -0.25293  -0.24927
 Alpha  occ. eigenvalues --   -0.24927
 Alpha virt. eigenvalues --   -0.05712  -0.05711  -0.02832  -0.02831  -0.02193
 Alpha virt. eigenvalues --    0.01826   0.01854   0.03743   0.04016   0.04016
 Alpha virt. eigenvalues --    0.04537   0.04537   0.04952   0.04953   0.04953
 Alpha virt. eigenvalues --    0.04955   0.05213   0.05542   0.06238   0.06238
 Alpha virt. eigenvalues --    0.06551   0.06551   0.07913   0.07913   0.08532
 Alpha virt. eigenvalues --    0.08533   0.08842   0.09480   0.09707   0.10133
 Alpha virt. eigenvalues --    0.10524   0.10772   0.10772   0.11014   0.11014
 Alpha virt. eigenvalues --    0.11207   0.11207   0.11499   0.11499   0.11751
 Alpha virt. eigenvalues --    0.12643   0.13471   0.13625   0.13643   0.13643
 Alpha virt. eigenvalues --    0.13843   0.13843   0.14528   0.14528   0.14627
 Alpha virt. eigenvalues --    0.14892   0.14983   0.15008   0.15008   0.15201
 Alpha virt. eigenvalues --    0.15201   0.15554   0.15577   0.15577   0.16369
 Alpha virt. eigenvalues --    0.16369   0.16801   0.17183   0.17183   0.17256
 Alpha virt. eigenvalues --    0.17483   0.17483   0.17907   0.17907   0.17980
 Alpha virt. eigenvalues --    0.17980   0.18396   0.18584   0.19051   0.19051
 Alpha virt. eigenvalues --    0.19063   0.19125   0.19400   0.19401   0.19796
 Alpha virt. eigenvalues --    0.20074   0.20139   0.20139   0.20566   0.20566
 Alpha virt. eigenvalues --    0.20700   0.20918   0.20918   0.21188   0.21577
 Alpha virt. eigenvalues --    0.21577   0.21925   0.21925   0.22155   0.22170
 Alpha virt. eigenvalues --    0.22170   0.22324   0.22755   0.22756   0.22977
 Alpha virt. eigenvalues --    0.23567   0.23567   0.23681   0.23707   0.23946
 Alpha virt. eigenvalues --    0.24007   0.24009   0.24124   0.24124   0.24308
[...]
 Alpha virt. eigenvalues --    0.50580   0.50580   0.50595   0.50595   0.50902
 Alpha virt. eigenvalues --    0.50994   0.51672   0.52161   0.52768   0.52768
 Alpha virt. eigenvalues --    0.53583   0.53595   0.53596   0.54848   0.54848
 Alpha virt. eigenvalues --    0.55041   0.55041   0.55698   0.56759   0.57046
 Alpha virt. eigenvalues --    0.57257   0.57257   0.58252   0.58272   0.58775
 Alpha virt. eigenvalues --    0.58775   0.60302   0.60302   0.60720   0.60728
 Alpha virt. eigenvalues --    0.60728   0.61322   0.61324   0.61601   0.61887
 Alpha virt. eigenvalues --    0.61888   0.62404   0.62404   0.62445   0.62487
 Alpha virt. eigenvalues --    0.63536   0.63587   0.63588   0.63937   0.63938
 Alpha virt. eigenvalues --    0.63972   0.64536   0.64536   0.65148   0.65148
 Alpha virt. eigenvalues --    0.66184   0.66240   0.66240   0.66578   0.67116
 Alpha virt. eigenvalues --    0.67116   0.67147   0.67148   0.67309   0.67660
 Alpha virt. eigenvalues --    0.67660   0.68255   0.68704   0.68705   0.69048
 Alpha virt. eigenvalues --    0.69188   0.69240   0.69330   0.69371   0.69372
 Alpha virt. eigenvalues --    0.70156   0.70157   0.70219   0.70220   0.70410
 Alpha virt. eigenvalues --    0.70763   0.70948   0.71081   0.71414   0.71417
 Alpha virt. eigenvalues --    0.71683   0.71684   0.72619   0.72637   0.72637
 Alpha virt. eigenvalues --    0.73581   0.73582   0.73933   0.73959   0.73959
 Alpha virt. eigenvalues --    0.74657   0.74657   0.75133   0.75134   0.76378
 Alpha virt. eigenvalues --    0.76475   0.76476   0.76920   0.76921   0.77126
 Alpha virt. eigenvalues --    0.77757   0.78222   0.78548   0.79114   0.79114
 Alpha virt. eigenvalues --    0.79274   0.79487   0.79636   0.80948   0.81301
 Alpha virt. eigenvalues --    0.81301   0.81947   0.82311   0.82507   0.82509
 Alpha virt. eigenvalues --    0.82738   0.82739   0.82917   0.82941   0.82941
 Alpha virt. eigenvalues --    0.83080   0.83080   0.83453   0.83453   0.83512
 Alpha virt. eigenvalues --    0.83512   0.83570   0.84755   0.84756   0.84770
 Alpha virt. eigenvalues --    0.84771   0.85045   0.86173   0.86173   0.86802
 Alpha virt. eigenvalues --    0.86802   0.87060   0.87329   0.87378   0.87378
 Alpha virt. eigenvalues --    0.87838   0.87838   0.87882   0.90161   0.90250
 Alpha virt. eigenvalues --    0.90251   0.90292   0.92188   0.93700   0.93700
 Alpha virt. eigenvalues --    0.94973   0.94973   0.95038   0.95038   0.96130
 Alpha virt. eigenvalues --    0.96452   0.96580   0.96580   0.97049   0.97273
 Alpha virt. eigenvalues --    0.99269   0.99270   0.99534   0.99898   1.00136
 Alpha virt. eigenvalues --    1.00137   1.00480   1.00480   1.01365   1.01365
 Alpha virt. eigenvalues --    1.02007   1.02007   1.02226   1.02227   1.02395
 Alpha virt. eigenvalues --    1.02670   1.03109   1.03134   1.03679   1.03680
 Alpha virt. eigenvalues --    1.03738   1.03738   1.04138   1.04139   1.04440
 Alpha virt. eigenvalues --    1.04441   1.04783   1.04849   1.05431   1.05432
 Alpha virt. eigenvalues --    1.05713   1.06166   1.06166   1.06447   1.06533
 Alpha virt. eigenvalues --    1.06535   1.06755   1.06755   1.08393   1.08486
 Alpha virt. eigenvalues --    1.09111   1.09351   1.09351   1.09429   1.09429
 Alpha virt. eigenvalues --    1.09507   1.09636   1.09762   1.09762   1.10236
 Alpha virt. eigenvalues --    1.10236   1.10241   1.10702   1.11838   1.12174
 Alpha virt. eigenvalues --    1.12174   1.12571   1.12806   1.12807   1.13123
 Alpha virt. eigenvalues --    1.14155   1.14155   1.14291   1.14292   1.14387
 Alpha virt. eigenvalues --    1.14388   1.14958   1.14959   1.15150   1.15464
 Alpha virt. eigenvalues --    1.15493   1.15754   1.15755   1.17497   1.18057
 Alpha virt. eigenvalues --    1.18057   1.19473   1.19474   1.19737   1.19737
 Alpha virt. eigenvalues --    1.20149   1.20185   1.20445   1.21093   1.21094
 Alpha virt. eigenvalues --    1.21777   1.21921   1.21954   1.21954   1.22668
 Alpha virt. eigenvalues --    1.22668   1.23489   1.23489   1.23733   1.25692
 Alpha virt. eigenvalues --    1.25815   1.26255   1.26256   1.26887   1.26888
 Alpha virt. eigenvalues --    1.28065   1.31667   1.31667   1.31777   1.31777
 Alpha virt. eigenvalues --    1.33750   1.33971   1.34000   1.34001   1.34513
 Alpha virt. eigenvalues --    1.34575   1.34575   1.35333   1.35334   1.35551
 Alpha virt. eigenvalues --    1.36574   1.37631   1.37631   1.41439   1.41441
 Alpha virt. eigenvalues --    1.41501   1.41501   1.41870   1.46085   1.46174
 Alpha virt. eigenvalues --    1.48048   1.49533   1.50140   1.50140   1.50719
 Alpha virt. eigenvalues --    1.51500   1.51501   1.51796   1.51797   1.52444
 Alpha virt. eigenvalues --    1.52445   1.54500   1.54853   1.54898   1.54898
 Alpha virt. eigenvalues --    1.55585   1.55624   1.55624   1.55734   1.55735
 Alpha virt. eigenvalues --    1.55901   1.57026   1.57026   1.57074   1.58944
 Alpha virt. eigenvalues --    1.58944   1.60597   1.60599   1.60683   1.61189
 Alpha virt. eigenvalues --    1.63023   1.63971   1.63971   1.64493   1.64494
 Alpha virt. eigenvalues --    1.64848   1.64968   1.65457   1.65458   1.67338
 Alpha virt. eigenvalues --    1.67338   1.67346   1.67429   1.67526   1.67527
 Alpha virt. eigenvalues --    1.67538   1.67547   1.67547   1.67726   1.67726
 Alpha virt. eigenvalues --    1.69102   1.69425   1.69425   1.70576   1.70576
 Alpha virt. eigenvalues --    1.71827   1.73253   1.73253   1.73738   1.74668
 Alpha virt. eigenvalues --    1.74748   1.74749   1.74763   1.74763   1.75364
 Alpha virt. eigenvalues --    1.75608   1.76000   1.76000   1.77490   1.77492
 Alpha virt. eigenvalues --    1.77652   1.80662   1.80741   1.81410   1.81410
 Alpha virt. eigenvalues --    1.81703   1.81706   1.83658   1.83658   1.84146
 Alpha virt. eigenvalues --    1.84147   1.84183   1.84242   1.84408   1.84754
 Alpha virt. eigenvalues --    1.85111   1.85675   1.85675   1.86511   1.86513
 Alpha virt. eigenvalues --    1.86593   1.86593   1.86850   1.86851   1.87824
 Alpha virt. eigenvalues --    1.88064   1.88153   1.88154   1.88466   1.89192
 Alpha virt. eigenvalues --    1.90151   1.90152   1.91733   1.91733   1.92672
 Alpha virt. eigenvalues --    1.92803   1.95373   1.95374   1.95854   1.95855
 Alpha virt. eigenvalues --    1.96518   1.96519   1.98124   1.98347   1.98348
 Alpha virt. eigenvalues --    1.98832   1.99414   1.99416   1.99764   2.00652
 Alpha virt. eigenvalues --    2.00653   2.00729   2.01591   2.02090   2.02091
 Alpha virt. eigenvalues --    2.02440   2.03595   2.03596   2.04908   2.05315
 Alpha virt. eigenvalues --    2.05550   2.05594   2.05594   2.06536   2.06948
 Alpha virt. eigenvalues --    2.06949   2.07587   2.07587   2.07871   2.08220
 Alpha virt. eigenvalues --    2.08221   2.08977   2.09601   2.09784   2.09785
 Alpha virt. eigenvalues --    2.10991   2.11808   2.11810   2.13585   2.13585
 Alpha virt. eigenvalues --    2.15035   2.15037   2.15863   2.16368   2.16369
 Alpha virt. eigenvalues --    2.16437   2.16438   2.17371   2.17413   2.17413
 Alpha virt. eigenvalues --    2.17975   2.18460   2.19012   2.19013   2.19218
 Alpha virt. eigenvalues --    2.20146   2.20147   2.20176   2.23052   2.23054
 Alpha virt. eigenvalues --    2.23870   2.23870   2.25556   2.25584   2.26617
 Alpha virt. eigenvalues --    2.27439   2.28801   2.28803   2.29678   2.30579
 Alpha virt. eigenvalues --    2.30579   2.30916   2.31107   2.31109   2.31841
 Alpha virt. eigenvalues --    2.31841   2.32697   2.32697   2.33512   2.35026
 Alpha virt. eigenvalues --    2.36178   2.36180   2.36698   2.38051   2.38051
 Alpha virt. eigenvalues --    2.38174   2.38174   2.39129   2.39532   2.39928
 Alpha virt. eigenvalues --    2.39929   2.40570   2.40571   2.41167   2.41167
 Alpha virt. eigenvalues --    2.43778   2.44988   2.45702   2.45704   2.47668
 Alpha virt. eigenvalues --    2.48812   2.49770   2.49772   2.50521   2.51187
 Alpha virt. eigenvalues --    2.51189   2.53307   2.54189   2.54190   2.57893
 Alpha virt. eigenvalues --    2.58864   2.58865   2.59226   2.59227   2.59774
 Alpha virt. eigenvalues --    2.59774   2.59895   2.60801   2.61515   2.61515
 Alpha virt. eigenvalues --    2.62489   2.63682   2.63683   2.65542   2.69700
 Alpha virt. eigenvalues --    2.70145   2.70150   2.70399   2.71801   2.72487
 Alpha virt. eigenvalues --    2.72685   2.72685   2.73349   2.73350   2.74243
 Alpha virt. eigenvalues --    2.74246   2.74300   2.74300   2.76032   2.76879
 Alpha virt. eigenvalues --    2.76887   2.79025   2.79337   2.79338   2.79617
 Alpha virt. eigenvalues --    2.80821   2.80822   2.81234   2.81234   2.81532
 Alpha virt. eigenvalues --    2.82677   2.82998   2.82999   2.83427   2.83513
 Alpha virt. eigenvalues --    2.83927   2.84170   2.84170   2.84507   2.85687
 Alpha virt. eigenvalues --    2.85687   2.86078   2.86079   2.86229   2.86914
 Alpha virt. eigenvalues --    2.86915   2.88015   2.88015   2.88411   2.88647
 Alpha virt. eigenvalues --    2.89114   2.89114   2.89618   2.89619   2.90011
 Alpha virt. eigenvalues --    2.90012   2.90634   2.90634   2.90747   2.90881
 Alpha virt. eigenvalues --    2.91898   2.91898   2.92344   2.92599   2.92600
 Alpha virt. eigenvalues --    2.92604   2.94506   2.96101   2.97750   2.98583
 Alpha virt. eigenvalues --    2.98814   2.98815   2.98955   2.98958   3.01063
 Alpha virt. eigenvalues --    3.01063   3.01635   3.03278   3.03842   3.03843
 Alpha virt. eigenvalues --    3.05416   3.05416   3.05600   3.05603   3.07049
 Alpha virt. eigenvalues --    3.08080   3.10000   3.10000   3.10112   3.10114
 Alpha virt. eigenvalues --    3.11660   3.11660   3.12238   3.12238   3.12586
 Alpha virt. eigenvalues --    3.14077   3.14137   3.14154   3.14158   3.14447
 Alpha virt. eigenvalues --    3.14869   3.14869   3.15418   3.16755   3.16756
 Alpha virt. eigenvalues --    3.18389   3.18389   3.18434   3.18463   3.18464
 Alpha virt. eigenvalues --    3.19625   3.20883   3.21201   3.21201   3.21542
 Alpha virt. eigenvalues --    3.24738   3.24739   3.27622   3.33835   3.33836
 Alpha virt. eigenvalues --    3.33840   3.33840   3.35177   3.36141   3.36924
 Alpha virt. eigenvalues --    3.40511   3.40553   3.40553   3.40889   3.40891
 Alpha virt. eigenvalues --    3.42014   3.42575   3.42577   3.42828   3.42829
 Alpha virt. eigenvalues --    3.43394   3.45148   3.45149   3.45477   3.46035
 Alpha virt. eigenvalues --    3.46036   3.48967   3.49067   3.49068   3.50639
 Alpha virt. eigenvalues --    3.50640   3.50765   3.54143   3.59849   3.60593
 Alpha virt. eigenvalues --    3.60593   3.61837   3.61837   3.62416   3.64890
 Alpha virt. eigenvalues --    3.65280   3.65366   3.65368   3.66322   3.66323
 Alpha virt. eigenvalues --    3.71277   3.71279   3.71315   3.71451   3.71452
 Alpha virt. eigenvalues --    3.73324   3.75844   3.76551   3.76891   3.76891
 Alpha virt. eigenvalues --    3.77566   3.77567   3.79251   3.79253   3.81251
 Alpha virt. eigenvalues --    3.81253   3.83065   3.85682   3.86463   3.92246
 Alpha virt. eigenvalues --    3.94172   3.94173   3.96425   3.96428   4.17019
 Alpha virt. eigenvalues --    4.17019   4.17150   4.17151   4.17258   4.18591
 Alpha virt. eigenvalues --    4.21199   4.28358   4.28359   4.35058   4.35059
 Alpha virt. eigenvalues --    4.35188   4.36883   4.36884   4.38313   4.40971
 Alpha virt. eigenvalues --    4.40973   4.43961   4.51605   4.55201   4.55202
 Alpha virt. eigenvalues --    4.75879   4.75880   4.84668   4.84669   4.85237
 Alpha virt. eigenvalues --    4.85464   4.85465   4.86377   4.94210   4.95269
 Alpha virt. eigenvalues --    4.98172   4.98174   5.00799   5.00802   5.07021
 Alpha virt. eigenvalues --   23.54442  23.68019  23.68019  23.83561  23.83562
 Alpha virt. eigenvalues --   23.93104  23.94684  23.94822  23.96494  23.96496
 Alpha virt. eigenvalues --   23.98771  23.98772  24.02473  24.02474  24.04119
 Alpha virt. eigenvalues --   24.04955  24.04955  24.06537  24.10715  24.11990
 Alpha virt. eigenvalues --   24.11994  24.13292  24.13295  24.13965  24.14614
 Alpha virt. eigenvalues --   24.14619  24.14781  24.16609  24.16613  24.18342
 Alpha virt. eigenvalues --   24.24539  24.24826  24.24832  24.26396  24.26403
 Alpha virt. eigenvalues --   24.27114  24.30819  24.31393  24.31394  24.31794
 Alpha virt. eigenvalues --   24.31795  24.33133  24.33875  24.34897  24.34899
 Alpha virt. eigenvalues --   24.35916  24.35917  24.36828
          Condensed to atoms (all electrons):
 Mulliken charges:
               1
     1  C   -0.032469
     2  C   -0.032464
     3  C    0.179649
     4  C   -0.265424
     5  C    0.179645
     6  C   -0.175847
     7  C   -0.175847
     8  C   -0.032179
     9  C   -0.032351
    10  C   -0.175776
    11  C   -0.032346
    12  C   -0.032184
    13  C   -0.175847
    14  C   -0.032464
    15  C   -0.032469
    16  C   -0.175847
    17  C   -0.032179
    18  C   -0.032351
    19  C   -0.175776
    20  C   -0.032346
    21  C   -0.032184
    22  C    0.179998
    23  C   -0.265437
    24  C    0.179640
    25  C    0.179644
    26  C   -0.265438
    27  C    0.179994
    28  C    0.179649
    29  C   -0.265424
    30  C    0.179645
    31  C    0.179998
    32  C   -0.265437
    33  C    0.179640
    34  C    0.179644
    35  C   -0.265438
    36  C    0.179994
    37  C   -0.120879
    38  C   -0.120873
    39  C   -0.121140
    40  C   -0.121142
    41  C   -0.120871
    42  C   -0.120881
    43  C   -0.120879
    44  C   -0.120873
    45  C   -0.121140
    46  C   -0.121142
    47  C   -0.120871
    48  C   -0.120881
    49  H    0.188416
    50  H    0.188410
    51  H    0.165469
    52  H    0.188418
    53  H    0.188418
    54  H    0.165469
    55  H    0.188409
    56  H    0.188417
    57  H    0.165461
    58  H    0.188416
    59  H    0.188410
    60  H    0.165469
    61  H    0.188418
    62  H    0.188418
    63  H    0.165469
    64  H    0.188409
    65  H    0.188417
    66  H    0.165461
    67  H   -0.153705
    68  H   -0.154500
    69  H   -0.153705
    70  H   -0.153705
    71  H   -0.154500
    72  H   -0.153705
 Sum of Mulliken charges =  -0.00000
 Mulliken charges with hydrogens summed into heavy atoms:
               1
     1  C   -0.032469
     2  C   -0.032464
     3  C    0.179649
     4  C   -0.099963
     5  C    0.179645
     6  C   -0.329553
     7  C   -0.329553
     8  C   -0.032179
     9  C   -0.032351
    10  C   -0.330275
    11  C   -0.032346
    12  C   -0.032184
    13  C   -0.329553
    14  C   -0.032464
    15  C   -0.032469
    16  C   -0.329553
    17  C   -0.032179
    18  C   -0.032351
    19  C   -0.330275
    20  C   -0.032346
    21  C   -0.032184
    22  C    0.179998
    23  C   -0.099969
    24  C    0.179640
    25  C    0.179644
    26  C   -0.099969
    27  C    0.179994
    28  C    0.179649
    29  C   -0.099963
    30  C    0.179645
    31  C    0.179998
    32  C   -0.099969
    33  C    0.179640
    34  C    0.179644
    35  C   -0.099969
    36  C    0.179994
    37  C    0.067538
    38  C    0.067536
    39  C    0.067278
    40  C    0.067276
    41  C    0.067539
    42  C    0.067535
    43  C    0.067538
    44  C    0.067536
    45  C    0.067278
    46  C    0.067276
    47  C    0.067539
    48  C    0.067535
 Electronic spatial extent (au):  <R**2>=          30353.8406
 Charge=             -0.0000 electrons
 Dipole moment (field-independent basis, Debye):
    X=             -0.0000    Y=             -0.0000    Z=              0.0000  Tot=              0.0000
 Quadrupole moment (field-independent basis, Debye-Ang):
   XX=           -234.6209   YY=           -234.6196   ZZ=           -292.1101
   XY=             -0.0000   XZ=              0.0000   YZ=              0.0000
 Traceless Quadrupole moment (field-independent basis, Debye-Ang):
   XX=             19.1626   YY=             19.1640   ZZ=            -38.3266
   XY=             -0.0000   XZ=              0.0000   YZ=              0.0000
 Octapole moment (field-independent basis, Debye-Ang**2):
  XXX=              0.0000  YYY=              0.0000  ZZZ=              0.0000  XYY=              0.0000
  XXY=             -0.0000  XXZ=              0.0000  XZZ=             -0.0000  YZZ=              0.0000
  YYZ=              0.0000  XYZ=              0.0000
 Hexadecapole moment (field-independent basis, Debye-Ang**3):
 XXXX=         -18870.0120 YYYY=         -18870.5992 ZZZZ=           -339.5690 XXXY=             -0.0002
 XXXZ=              0.0000 YYYX=             -0.0006 YYYZ=              0.0000 ZZZX=              0.0000
 ZZZY=              0.0000 XXYY=          -6290.1155 XXZZ=          -4029.1349 YYZZ=          -4029.2780
 XXYZ=              0.0000 YYXZ=              0.0000 ZZXY=              0.0000
 N-N= 5.135593412373D+03 E-N=-1.454719855451D+04  KE= 1.835634465759D+03
 Symmetry AG   KE= 8.921614599520D+02
 Symmetry BG   KE= 2.561837352108D+01
 Symmetry AU   KE= 2.565063942360D+01
 Symmetry BU   KE= 8.922039928625D+02
 1\1\GINC-BC11926\FOpt\RwB97XD\6-311++G(d,p)\C48H24\HPHAM196\03-Sep-202
 2\0\\# opt wb97xd/6-311++g(d,p) geom=connectivity\\Fiveseven-3.cdx\\0,
 1\C,2.8979545619,2.5100299355,0.\C,3.622699611,1.2547714152,0.\C,5.025
 7269487,1.5778199528,0.\C,5.1483992198,2.9725110921,0.\C,3.8792166216,
 3.5635895525,0.\C,1.517400075,2.6282698139,0.\C,3.0348484381,0.0000387
 781,0.\C,0.72468975,3.7647043683,0.\C,-0.7247570977,3.7646310318,0.\C,
 -1.5174030556,2.6281528806,0.\C,-2.8979466473,2.5099076642,0.\C,-3.622
 7017183,1.2546683786,0.\C,-3.0348484381,-0.0000387781,0.\C,-3.62269961
 1,-1.2547714152,0.\C,-2.8979545619,-2.5100299355,0.\C,-1.517400075,-2.
 6282698139,0.\C,-0.72468975,-3.7647043683,0.\C,0.7247570977,-3.7646310
 318,0.\C,1.5174030556,-2.6281528806,0.\C,2.8979466473,-2.5099076642,0.
 \C,3.6227017183,-1.2546683786,0.\C,3.879205917,-3.5634047989,0.\C,5.14
 84414039,-2.9723461606,0.\C,5.0257537042,-1.5776234747,0.\C,-1.1464954
 686,-5.1412644014,0.\C,0.0000476866,-5.9448542704,0.\C,1.1465154757,-5
 .1411714248,0.\C,-5.0257269487,-1.5778199528,0.\C,-5.1483992198,-2.972
 5110921,0.\C,-3.8792166216,-3.5635895525,0.\C,-3.879205917,3.563404798
 9,0.\C,-5.1484414039,2.9723461606,0.\C,-5.0257537042,1.5776234747,0.\C
 ,1.1464954686,5.1412644014,0.\C,-0.0000476866,5.9448542704,0.\C,-1.146
 5154757,5.1411714248,0.\C,3.6550440077,4.9699904588,0.\C,2.4765687123,
 5.6503576873,0.\C,-2.4766031921,5.6502263491,0.\C,-3.6550533543,4.9698
 27867,0.\C,-6.1316548257,0.6802641752,0.\C,-6.1316428887,-0.6805089421
 ,0.\C,-3.6550440077,-4.9699904588,0.\C,-2.4765687123,-5.6503576873,0.\
 C,2.4766031921,-5.6502263491,0.\C,3.6550533543,-4.969827867,0.\C,6.131
 6548257,-0.6802641752,0.\C,6.1316428887,0.6805089421,0.\H,-7.106404360
 4,-1.161452119,0.\H,-7.1064300046,1.1611791304,0.\H,-6.0855788355,3.51
 34022273,0.\H,-4.5589379405,5.5735353414,0.\H,-2.5475146833,6.73486542
 3,0.\H,-0.0000670421,7.0269671357,0.\H,2.5474442013,6.7349969276,0.\H,
 4.5589184973,5.5737101146,0.\H,6.0855256614,3.513573127,0.\H,7.1064043
 604,1.161452119,0.\H,7.1064300046,-1.1611791304,0.\H,6.0855788355,-3.5
 134022273,0.\H,4.5589379405,-5.5735353414,0.\H,2.5475146833,-6.7348654
 23,0.\H,0.0000670421,-7.0269671357,0.\H,-2.5474442013,-6.7349969276,0.
 \H,-4.5589184973,-5.5737101146,0.\H,-6.0855256614,-3.513573127,0.\H,-1
 .9488008607,-0.000139624,0.\H,-0.9743371319,1.6875584422,0.\H,0.974483
 7439,1.6876629814,0.\H,1.9488008607,0.000139624,0.\H,0.9743371319,-1.6
 875584422,0.\H,-0.9744837439,-1.6876629814,0.\\Version=ES64L-G16RevA.0
 3\State=1-AG\HF=-1843.2462594\RMSD=3.640e-09\RMSF=2.758e-05\Dipole=0.,
 0.,0.\Quadrupole=14.2476724,14.2472187,-28.4948911,0.0004336,0.,0.\PG=
 C02H [SGH(C48H24)]\\@


 NECESSARY EVIL: ONE WE LIKE TOO MUCH TO RELINQUISH.
 Job cpu time:       0 days 15 hours 11 minutes 15.0 seconds.
 Elapsed time:       0 days  0 hours 26 minutes 35.6 seconds.
 File lengths (MBytes):  RWF=    890 Int=      0 D2E=      0 Chk=    107 Scr=      1
 Normal termination of Gaussian 16 at Sat Sep  3 08:20:55 2022.
