 Entering Gaussian System, Link 0=g16
 Initial command:
 /project/6004141/group/g16/g16/l1.exe "/scratch/hpham196/GaussianScratch/Gau-130381.inp" -scrdir="/scratch/hpham196/GaussianScratch/"
 Entering Link 1 = /project/6004141/group/g16/g16/l1.exe PID=    130383.
  
 Copyright (c) 1988,1990,1992,1993,1995,1998,2003,2009,2016,
            Gaussian, Inc.  All Rights Reserved.
  
 This is part of the Gaussian(R) 16 program.  It is based on
 the Gaussian(R) 09 system (copyright 2009, Gaussian, Inc.),
 the Gaussian(R) 03 system (copyright 2003, Gaussian, Inc.),
 the Gaussian(R) 98 system (copyright 1998, Gaussian, Inc.),
 the Gaussian(R) 94 system (copyright 1995, Gaussian, Inc.),
 the Gaussian 92(TM) system (copyright 1992, Gaussian, Inc.),
 the Gaussian 90(TM) system (copyright 1990, Gaussian, Inc.),
 the Gaussian 88(TM) system (copyright 1988, Gaussian, Inc.),
 the Gaussian 86(TM) system (copyright 1986, Carnegie Mellon
 University), and the Gaussian 82(TM) system (copyright 1983,
 Carnegie Mellon University). Gaussian is a federally registered
 trademark of Gaussian, Inc.
  
 This software contains proprietary and confidential information,
 including trade secrets, belonging to Gaussian, Inc.
  
 This software is provided under written license and may be
 used, copied, transmitted, or stored only in accord with that
 written license.
  
 The following legend is applicable only to US Government
 contracts under FAR:
  
                    RESTRICTED RIGHTS LEGEND
  
 Use, reproduction and disclosure by the US Government is
 subject to restrictions as set forth in subparagraphs (a)
 and (c) of the Commercial Computer Software - Restricted
 Rights clause in FAR 52.227-19.
  
 Gaussian, Inc.
 340 Quinnipiac St., Bldg. 40, Wallingford CT 06492
  
  
 ---------------------------------------------------------------
 Warning -- This program may not be used in any manner that
 competes with the business of Gaussian, Inc. or will provide
 assistance to any competitor of Gaussian, Inc.  The licensee
 of this program is prohibited from giving any competitor of
 Gaussian, Inc. access to this program.  By using this program,
 the user acknowledges that Gaussian, Inc. is engaged in the
 business of creating and licensing software in the field of
 computational chemistry and represents and warrants to the
 licensee that it is not a competitor of Gaussian, Inc. and that
 it will not use this program in any manner prohibited above.
 ---------------------------------------------------------------
  

 Cite this work as:
 Gaussian 16, Revision A.03,
 M. J. Frisch, G. W. Trucks, H. B. Schlegel, G. E. Scuseria, 
 M. A. Robb, J. R. Cheeseman, G. Scalmani, V. Barone, 
 G. A. Petersson, H. Nakatsuji, X. Li, M. Caricato, A. V. Marenich, 
 J. Bloino, B. G. Janesko, R. Gomperts, B. Mennucci, H. P. Hratchian, 
 J. V. Ortiz, A. F. Izmaylov, J. L. Sonnenberg, D. Williams-Young, 
 F. Ding, F. Lipparini, F. Egidi, J. Goings, B. Peng, A. Petrone, 
 T. Henderson, D. Ranasinghe, V. G. Zakrzewski, J. Gao, N. Rega, 
 G. Zheng, W. Liang, M. Hada, M. Ehara, K. Toyota, R. Fukuda, 
 J. Hasegawa, M. Ishida, T. Nakajima, Y. Honda, O. Kitao, H. Nakai, 
 T. Vreven, K. Throssell, J. A. Montgomery, Jr., J. E. Peralta, 
 F. Ogliaro, M. J. Bearpark, J. J. Heyd, E. N. Brothers, K. N. Kudin, 
 V. N. Staroverov, T. A. Keith, R. Kobayashi, J. Normand, 
 K. Raghavachari, A. P. Rendell, J. C. Burant, S. S. Iyengar, 
 J. Tomasi, M. Cossi, J. M. Millam, M. Klene, C. Adamo, R. Cammi, 
 J. W. Ochterski, R. L. Martin, K. Morokuma, O. Farkas, 
 J. B. Foresman, and D. J. Fox, Gaussian, Inc., Wallingford CT, 2016.
 
 ******************************************
 Gaussian 16:  ES64L-G16RevA.03 25-Dec-2016
                 5-Sep-2022 
 ******************************************
 %NProcShared=40
 Will use up to   40 processors via shared memory.
 %chk=Azulene-4.chk
 --------------------------------------------
 # opt wb97xd/6-311++g(d,p) geom=connectivity
 --------------------------------------------
 1/18=20,19=15,26=3,38=1,57=2/1,3;
 2/9=110,12=2,17=6,18=5,40=1/2;
 3/5=4,6=6,7=1111,11=2,25=1,30=1,71=1,74=-58/1,2,3;
 4//1;
 5/5=2,38=5/2;
 6/7=2,8=2,9=2,10=2,28=1/1;
 7//1,2,3,16;
 1/18=20,19=15,26=3/3(2);
 2/9=110/2;
 99//99;
 2/9=110/2;
 3/5=4,6=6,7=1111,11=2,25=1,30=1,71=1,74=-58/1,2,3;
 4/5=5,16=3,69=1/1;
 5/5=2,38=5/2;
 7//1,2,3,16;
 1/18=20,19=15,26=3/3(-5);
 2/9=110/2;
 6/7=2,8=2,9=2,10=2,19=2,28=1/1;
 99/9=1/99;
 ---------------
 Fiveseven-4.cdx
 ---------------
 Symbolic Z-matrix:
 Charge =  0 Multiplicity = 1
 C                    -6.48264   1.58422   0. 
 C                    -5.98444   2.95303   0. 
 C                    -4.54508   2.87754   0. 
 C                    -4.18383   1.5227    0. 
 C                    -5.33146   0.717     0. 
 C                    -5.33146  -0.71732   0. 
 C                    -6.48263  -1.58462   0. 
 C                    -7.83166  -1.25069   0. 
 C                    -8.44127  -0.00025   0. 
 C                    -7.83171   1.2502    0. 
 C                    -4.1839   -1.523     0. 
 C                    -4.54512  -2.87786   0. 
 C                    -5.98444  -2.95341   0. 
 C                    -3.62319  -3.97665   0. 
 C                    -3.94762  -5.38102   0. 
 C                    -5.1958   -5.99223   0. 
 C                    -6.4665   -5.42608   0. 
 C                    -6.80325  -4.07635   0. 
 C                    -2.2262   -3.85626   0. 
 C                    -1.63214  -5.12635   0. 
 C                    -2.68614  -6.1094    0. 
 C                    -0.21962  -5.37534   0. 
 C                     0.43466  -6.65958   0. 
 C                    -0.1285   -7.93015   0. 
 C                    -1.4658   -8.31335   0. 
 C                    -2.59142  -7.49596   0. 
 C                     0.77295  -4.38496   0. 
 C                     2.04457  -4.97585   0. 
 C                     1.86917  -6.40646   0. 
 C                     3.28667  -4.25857   0. 
 C                     4.61337  -4.82181   0. 
 C                     4.99877  -6.15705   0. 
 C                     4.22075  -7.31027   0. 
 C                     2.83307  -7.4077    0. 
 C                     3.4106   -2.8619    0. 
 C                     4.76454  -2.49722   0. 
 C                     5.54965  -3.70591   0. 
 C                     5.25513  -1.14939   0. 
 C                     6.63356  -0.72821   0. 
 C                     7.787    -1.50351   0. 
 C                     7.9321   -2.88706   0. 
 C                     6.93158  -3.85354   0. 
 C                     4.45242   0.00032   0. 
 C                     5.25536   1.14985   0. 
 C                     6.63366   0.72843   0. 
 C                     4.7649    2.49772   0. 
 C                     5.55009   3.70643   0. 
 C                     6.93207   3.85375   0. 
 C                     7.93245   2.88706   0. 
 C                     7.7872    1.50356   0. 
 C                     3.411     2.86233   0. 
 C                     3.28704   4.25902   0. 
 C                     4.61371   4.82237   0. 
 C                     2.04481   4.97609   0. 
 C                     1.86917   6.40667   0. 
 C                     2.83286   7.40806   0. 
 C                     4.22058   7.31084   0. 
 C                     4.99884   6.15777   0. 
 C                     0.77331   4.38504   0. 
 C                    -0.21953   5.3752    0. 
 C                     0.43461   6.65952   0. 
 C                    -1.63205   5.12604   0. 
 C                    -2.68612   6.10908   0. 
 C                    -2.59154   7.49565   0. 
 C                    -1.46597   8.31318   0. 
 C                    -0.12865   7.93007   0. 
 C                    -2.22619   3.85596   0. 
 C                    -3.62318   3.97635   0. 
 C                    -3.94762   5.38066   0. 
 C                    -6.80323   4.07599   0. 
 C                    -6.46649   5.42574   0. 
 C                    -5.1958    5.99187   0. 
 H                    -7.87422  -3.88839   0. 
 H                    -7.29906  -6.1246    0. 
 H                    -5.19694  -7.07954   0. 
 H                    -3.53252  -8.04053   0. 
 H                    -1.65449  -9.38363   0. 
 H                     0.56969  -8.7637    0. 
 H                     2.46233  -8.42985   0. 
 H                     4.76423  -8.2514    0. 
 H                     6.06943  -6.34668   0. 
 H                     7.30428  -4.875     0. 
 H                     8.95334  -3.25878   0. 
 H                     8.72915  -0.96074   0. 
 H                     8.72927   0.9606    0. 
 H                     7.30519   4.87502   0. 
 H                     8.95373   3.25866   0. 
 H                     6.06941   6.34783   0. 
 H                     2.46175   8.43009   0. 
 H                     4.76389   8.25207   0. 
 H                    -1.65475   9.38345   0. 
 H                     0.56946   8.76367   0. 
 H                    -3.53272   8.04014   0. 
 H                    -7.29905   6.12425   0. 
 H                    -5.1969    7.07918   0. 
 H                    -7.8742    3.88816   0. 
 H                    -8.53137   2.08252   0. 
 H                    -9.52805  -0.0003    0. 
 H                    -8.53128  -2.08303   0. 
 H                    -3.16751  -1.15297   0. 
 H                    -1.68516  -2.91963   0. 
 H                     0.5849   -3.31977   0. 
 H                     2.58201  -2.16663   0. 
 H                     3.37077   0.00044   0. 
 H                     2.5824    2.16706   0. 
 H                     0.58559   3.31981   0. 
 H                    -1.68537   2.91922   0. 
 H                    -3.1674    1.15275   0. 
 

 GradGradGradGradGradGradGradGradGradGradGradGradGradGradGradGradGradGrad
 Berny optimization.
 Initialization pass.
                           ----------------------------
                           !    Initial Parameters    !
                           ! (Angstroms and Degrees)  !
 --------------------------                            --------------------------
 ! Name  Definition              Value          Derivative Info.                !
 --------------------------------------------------------------------------------
 ! R1    R(1,2)                  1.4566         estimate D2E/DX2                !
 ! R2    R(1,5)                  1.4413         estimate D2E/DX2                !
 ! R3    R(1,10)                 1.3898         estimate D2E/DX2                !
 ! R4    R(2,3)                  1.4413         estimate D2E/DX2                !
 ! R5    R(2,70)                 1.3898         estimate D2E/DX2                !
 ! R6    R(3,4)                  1.4022         estimate D2E/DX2                !
 ! R7    R(3,68)                 1.4343         estimate D2E/DX2                !
 ! R8    R(4,5)                  1.4022         estimate D2E/DX2                !
 ! R9    R(4,108)                1.0817         estimate D2E/DX2                !
 ! R10   R(5,6)                  1.4343         estimate D2E/DX2                !
 ! R11   R(6,7)                  1.4413         estimate D2E/DX2                !
 ! R12   R(6,11)                 1.4021         estimate D2E/DX2                !
 ! R13   R(7,8)                  1.3897         estimate D2E/DX2                !
 ! R14   R(7,13)                 1.4566         estimate D2E/DX2                !
 ! R15   R(8,9)                  1.3911         estimate D2E/DX2                !
 ! R16   R(8,99)                 1.0873         estimate D2E/DX2                !
 ! R17   R(9,10)                 1.3911         estimate D2E/DX2                !
 ! R18   R(9,98)                 1.0868         estimate D2E/DX2                !
 ! R19   R(10,97)                1.0873         estimate D2E/DX2                !
 ! R20   R(11,12)                1.4022         estimate D2E/DX2                !
 ! R21   R(11,100)               1.0817         estimate D2E/DX2                !
 ! R22   R(12,13)                1.4413         estimate D2E/DX2                !
 ! R23   R(12,14)                1.4343         estimate D2E/DX2                !
 ! R24   R(13,18)                1.3898         estimate D2E/DX2                !
 ! R25   R(14,15)                1.4414         estimate D2E/DX2                !
 ! R26   R(14,19)                1.4022         estimate D2E/DX2                !
 ! R27   R(15,16)                1.3898         estimate D2E/DX2                !
 ! R28   R(15,21)                1.4567         estimate D2E/DX2                !
 ! R29   R(16,17)                1.3911         estimate D2E/DX2                !
 ! R30   R(16,75)                1.0873         estimate D2E/DX2                !
 ! R31   R(17,18)                1.3911         estimate D2E/DX2                !
 ! R32   R(17,74)                1.0868         estimate D2E/DX2                !
 ! R33   R(18,73)                1.0873         estimate D2E/DX2                !
 ! R34   R(19,20)                1.4022         estimate D2E/DX2                !
 ! R35   R(19,101)               1.0817         estimate D2E/DX2                !
 ! R36   R(20,21)                1.4413         estimate D2E/DX2                !
 ! R37   R(20,22)                1.4343         estimate D2E/DX2                !
 ! R38   R(21,26)                1.3898         estimate D2E/DX2                !
 ! R39   R(22,23)                1.4413         estimate D2E/DX2                !
 ! R40   R(22,27)                1.4022         estimate D2E/DX2                !
 ! R41   R(23,24)                1.3898         estimate D2E/DX2                !
 ! R42   R(23,29)                1.4567         estimate D2E/DX2                !
 ! R43   R(24,25)                1.3911         estimate D2E/DX2                !
 ! R44   R(24,78)                1.0873         estimate D2E/DX2                !
 ! R45   R(25,26)                1.3911         estimate D2E/DX2                !
 ! R46   R(25,77)                1.0868         estimate D2E/DX2                !
 ! R47   R(26,76)                1.0873         estimate D2E/DX2                !
 ! R48   R(27,28)                1.4022         estimate D2E/DX2                !
 ! R49   R(27,102)               1.0817         estimate D2E/DX2                !
 ! R50   R(28,29)                1.4413         estimate D2E/DX2                !
 ! R51   R(28,30)                1.4343         estimate D2E/DX2                !
 ! R52   R(29,34)                1.3898         estimate D2E/DX2                !
 ! R53   R(30,31)                1.4413         estimate D2E/DX2                !
 ! R54   R(30,35)                1.4022         estimate D2E/DX2                !
 ! R55   R(31,32)                1.3898         estimate D2E/DX2                !
 ! R56   R(31,37)                1.4567         estimate D2E/DX2                !
 ! R57   R(32,33)                1.3911         estimate D2E/DX2                !
 ! R58   R(32,81)                1.0873         estimate D2E/DX2                !
 ! R59   R(33,34)                1.3911         estimate D2E/DX2                !
 ! R60   R(33,80)                1.0868         estimate D2E/DX2                !
 ! R61   R(34,79)                1.0873         estimate D2E/DX2                !
 ! R62   R(35,36)                1.4022         estimate D2E/DX2                !
 ! R63   R(35,103)               1.0816         estimate D2E/DX2                !
 ! R64   R(36,37)                1.4413         estimate D2E/DX2                !
 ! R65   R(36,38)                1.4343         estimate D2E/DX2                !
 ! R66   R(37,42)                1.3898         estimate D2E/DX2                !
 ! R67   R(38,39)                1.4413         estimate D2E/DX2                !
 ! R68   R(38,43)                1.4022         estimate D2E/DX2                !
 ! R69   R(39,40)                1.3898         estimate D2E/DX2                !
 ! R70   R(39,45)                1.4566         estimate D2E/DX2                !
 ! R71   R(40,41)                1.3911         estimate D2E/DX2                !
 ! R72   R(40,84)                1.0873         estimate D2E/DX2                !
 ! R73   R(41,42)                1.3911         estimate D2E/DX2                !
 ! R74   R(41,83)                1.0868         estimate D2E/DX2                !
 ! R75   R(42,82)                1.0873         estimate D2E/DX2                !
 ! R76   R(43,44)                1.4022         estimate D2E/DX2                !
 ! R77   R(43,104)               1.0816         estimate D2E/DX2                !
 ! R78   R(44,45)                1.4413         estimate D2E/DX2                !
 ! R79   R(44,46)                1.4343         estimate D2E/DX2                !
 ! R80   R(45,50)                1.3898         estimate D2E/DX2                !
 ! R81   R(46,47)                1.4414         estimate D2E/DX2                !
 ! R82   R(46,51)                1.4021         estimate D2E/DX2                !
 ! R83   R(47,48)                1.3898         estimate D2E/DX2                !
 ! R84   R(47,53)                1.4567         estimate D2E/DX2                !
 ! R85   R(48,49)                1.3911         estimate D2E/DX2                !
 ! R86   R(48,86)                1.0873         estimate D2E/DX2                !
 ! R87   R(49,50)                1.3911         estimate D2E/DX2                !
 ! R88   R(49,87)                1.0868         estimate D2E/DX2                !
 ! R89   R(50,85)                1.0873         estimate D2E/DX2                !
 ! R90   R(51,52)                1.4022         estimate D2E/DX2                !
 ! R91   R(51,105)               1.0817         estimate D2E/DX2                !
 ! R92   R(52,53)                1.4413         estimate D2E/DX2                !
 ! R93   R(52,54)                1.4343         estimate D2E/DX2                !
 ! R94   R(53,58)                1.3898         estimate D2E/DX2                !
 ! R95   R(54,55)                1.4413         estimate D2E/DX2                !
 ! R96   R(54,59)                1.4022         estimate D2E/DX2                !
 ! R97   R(55,56)                1.3898         estimate D2E/DX2                !
 ! R98   R(55,61)                1.4567         estimate D2E/DX2                !
 ! R99   R(56,57)                1.3911         estimate D2E/DX2                !
 ! R100  R(56,89)                1.0873         estimate D2E/DX2                !
 ! R101  R(57,58)                1.3911         estimate D2E/DX2                !
 ! R102  R(57,90)                1.0868         estimate D2E/DX2                !
 ! R103  R(58,88)                1.0873         estimate D2E/DX2                !
 ! R104  R(59,60)                1.4022         estimate D2E/DX2                !
 ! R105  R(59,106)               1.0816         estimate D2E/DX2                !
 ! R106  R(60,61)                1.4413         estimate D2E/DX2                !
 ! R107  R(60,62)                1.4343         estimate D2E/DX2                !
 ! R108  R(61,66)                1.3898         estimate D2E/DX2                !
 ! R109  R(62,63)                1.4413         estimate D2E/DX2                !
 ! R110  R(62,67)                1.4022         estimate D2E/DX2                !
 ! R111  R(63,64)                1.3898         estimate D2E/DX2                !
 ! R112  R(63,69)                1.4567         estimate D2E/DX2                !
 ! R113  R(64,65)                1.3911         estimate D2E/DX2                !
 ! R114  R(64,93)                1.0873         estimate D2E/DX2                !
 ! R115  R(65,66)                1.3911         estimate D2E/DX2                !
 ! R116  R(65,91)                1.0868         estimate D2E/DX2                !
 ! R117  R(66,92)                1.0873         estimate D2E/DX2                !
 ! R118  R(67,68)                1.4022         estimate D2E/DX2                !
 ! R119  R(67,107)               1.0817         estimate D2E/DX2                !
 ! R120  R(68,69)                1.4413         estimate D2E/DX2                !
 ! R121  R(69,72)                1.3898         estimate D2E/DX2                !
 ! R122  R(70,71)                1.3911         estimate D2E/DX2                !
 ! R123  R(70,96)                1.0873         estimate D2E/DX2                !
 ! R124  R(71,72)                1.3911         estimate D2E/DX2                !
 ! R125  R(71,94)                1.0868         estimate D2E/DX2                !
 ! R126  R(72,95)                1.0873         estimate D2E/DX2                !
 ! A1    A(2,1,5)              106.9925         estimate D2E/DX2                !
 ! A2    A(2,1,10)             123.9058         estimate D2E/DX2                !
 ! A3    A(5,1,10)             129.1017         estimate D2E/DX2                !
 ! A4    A(1,2,3)              106.9974         estimate D2E/DX2                !
 ! A5    A(1,2,70)             123.9035         estimate D2E/DX2                !
 ! A6    A(3,2,70)             129.0991         estimate D2E/DX2                !
 ! A7    A(2,3,4)              107.932          estimate D2E/DX2                !
 ! A8    A(2,3,68)             126.9945         estimate D2E/DX2                !
 ! A9    A(4,3,68)             125.0735         estimate D2E/DX2                !
 ! A10   A(3,4,5)              110.1413         estimate D2E/DX2                !
 ! A11   A(3,4,108)            124.9298         estimate D2E/DX2                !
 ! A12   A(5,4,108)            124.9288         estimate D2E/DX2                !
 ! A13   A(1,5,4)              107.9367         estimate D2E/DX2                !
 ! A14   A(1,5,6)              126.9917         estimate D2E/DX2                !
 ! A15   A(4,5,6)              125.0716         estimate D2E/DX2                !
 ! A16   A(5,6,7)              126.9951         estimate D2E/DX2                !
 ! A17   A(5,6,11)             125.0717         estimate D2E/DX2                !
 ! A18   A(7,6,11)             107.9333         estimate D2E/DX2                !
 ! A19   A(6,7,8)              129.102          estimate D2E/DX2                !
 ! A20   A(6,7,13)             106.9951         estimate D2E/DX2                !
 ! A21   A(8,7,13)             123.9029         estimate D2E/DX2                !
 ! A22   A(7,8,9)              129.8933         estimate D2E/DX2                !
 ! A23   A(7,8,99)             116.1454         estimate D2E/DX2                !
 ! A24   A(9,8,99)             113.9613         estimate D2E/DX2                !
 ! A25   A(8,9,10)             128.0222         estimate D2E/DX2                !
 ! A26   A(8,9,98)             115.9877         estimate D2E/DX2                !
 ! A27   A(10,9,98)            115.9902         estimate D2E/DX2                !
 ! A28   A(1,10,9)             129.8941         estimate D2E/DX2                !
 ! A29   A(1,10,97)            116.1444         estimate D2E/DX2                !
 ! A30   A(9,10,97)            113.9615         estimate D2E/DX2                !
 ! A31   A(6,11,12)            110.1435         estimate D2E/DX2                !
 ! A32   A(6,11,100)           124.9236         estimate D2E/DX2                !
 ! A33   A(12,11,100)          124.9329         estimate D2E/DX2                !
 ! A34   A(11,12,13)           107.9332         estimate D2E/DX2                !
 ! A35   A(11,12,14)           125.0734         estimate D2E/DX2                !
 ! A36   A(13,12,14)           126.9934         estimate D2E/DX2                !
 ! A37   A(7,13,12)            106.995          estimate D2E/DX2                !
 ! A38   A(7,13,18)            123.9021         estimate D2E/DX2                !
 ! A39   A(12,13,18)           129.1029         estimate D2E/DX2                !
 ! A40   A(12,14,15)           126.9938         estimate D2E/DX2                !
 ! A41   A(12,14,19)           125.0724         estimate D2E/DX2                !
 ! A42   A(15,14,19)           107.9337         estimate D2E/DX2                !
 ! A43   A(14,15,16)           129.0984         estimate D2E/DX2                !
 ! A44   A(14,15,21)           106.9943         estimate D2E/DX2                !
 ! A45   A(16,15,21)           123.9072         estimate D2E/DX2                !
 ! A46   A(15,16,17)           129.8949         estimate D2E/DX2                !
 ! A47   A(15,16,75)           116.1504         estimate D2E/DX2                !
 ! A48   A(17,16,75)           113.9547         estimate D2E/DX2                !
 ! A49   A(16,17,18)           128.0235         estimate D2E/DX2                !
 ! A50   A(16,17,74)           115.9882         estimate D2E/DX2                !
 ! A51   A(18,17,74)           115.9883         estimate D2E/DX2                !
 ! A52   A(13,18,17)           129.8931         estimate D2E/DX2                !
 ! A53   A(13,18,73)           116.1442         estimate D2E/DX2                !
 ! A54   A(17,18,73)           113.9627         estimate D2E/DX2                !
 ! A55   A(14,19,20)           110.1412         estimate D2E/DX2                !
 ! A56   A(14,19,101)          124.9378         estimate D2E/DX2                !
 ! A57   A(20,19,101)          124.921          estimate D2E/DX2                !
 ! A58   A(19,20,21)           107.9382         estimate D2E/DX2                !
 ! A59   A(19,20,22)           125.0639         estimate D2E/DX2                !
 ! A60   A(21,20,22)           126.9978         estimate D2E/DX2                !
 ! A61   A(15,21,20)           106.9925         estimate D2E/DX2                !
 ! A62   A(15,21,26)           123.9107         estimate D2E/DX2                !
 ! A63   A(20,21,26)           129.0968         estimate D2E/DX2                !
 ! A64   A(20,22,23)           126.9946         estimate D2E/DX2                !
 ! A65   A(20,22,27)           125.0661         estimate D2E/DX2                !
 ! A66   A(23,22,27)           107.9393         estimate D2E/DX2                !
 ! A67   A(22,23,24)           129.0982         estimate D2E/DX2                !
 ! A68   A(22,23,29)           106.9907         estimate D2E/DX2                !
 ! A69   A(24,23,29)           123.9112         estimate D2E/DX2                !
 ! A70   A(23,24,25)           129.8941         estimate D2E/DX2                !
 ! A71   A(23,24,78)           116.146          estimate D2E/DX2                !
 ! A72   A(25,24,78)           113.9599         estimate D2E/DX2                !
 ! A73   A(24,25,26)           128.0241         estimate D2E/DX2                !
 ! A74   A(24,25,77)           115.9884         estimate D2E/DX2                !
 ! A75   A(26,25,77)           115.9875         estimate D2E/DX2                !
 ! A76   A(21,26,25)           129.8944         estimate D2E/DX2                !
 ! A77   A(21,26,76)           116.1475         estimate D2E/DX2                !
 ! A78   A(25,26,76)           113.9581         estimate D2E/DX2                !
 ! A79   A(22,27,28)           110.1404         estimate D2E/DX2                !
 ! A80   A(22,27,102)          124.9248         estimate D2E/DX2                !
 ! A81   A(28,27,102)          124.9347         estimate D2E/DX2                !
 ! A82   A(27,28,29)           107.9331         estimate D2E/DX2                !
 ! A83   A(27,28,30)           125.072          estimate D2E/DX2                !
 ! A84   A(29,28,30)           126.9949         estimate D2E/DX2                !
 ! A85   A(23,29,28)           106.9966         estimate D2E/DX2                !
 ! A86   A(23,29,34)           123.9045         estimate D2E/DX2                !
 ! A87   A(28,29,34)           129.0989         estimate D2E/DX2                !
 ! A88   A(28,30,31)           126.9917         estimate D2E/DX2                !
 ! A89   A(28,30,35)           125.0758         estimate D2E/DX2                !
 ! A90   A(31,30,35)           107.9326         estimate D2E/DX2                !
 ! A91   A(30,31,32)           129.1032         estimate D2E/DX2                !
 ! A92   A(30,31,37)           106.9948         estimate D2E/DX2                !
 ! A93   A(32,31,37)           123.902          estimate D2E/DX2                !
 ! A94   A(31,32,33)           129.8944         estimate D2E/DX2                !
 ! A95   A(31,32,81)           116.1436         estimate D2E/DX2                !
 ! A96   A(33,32,81)           113.9619         estimate D2E/DX2                !
 ! A97   A(32,33,34)           128.0217         estimate D2E/DX2                !
 ! A98   A(32,33,80)           115.9892         estimate D2E/DX2                !
 ! A99   A(34,33,80)           115.9891         estimate D2E/DX2                !
 ! A100  A(29,34,33)           129.8951         estimate D2E/DX2                !
 ! A101  A(29,34,79)           116.153          estimate D2E/DX2                !
 ! A102  A(33,34,79)           113.9518         estimate D2E/DX2                !
 ! A103  A(30,35,36)           110.1452         estimate D2E/DX2                !
 ! A104  A(30,35,103)          124.9294         estimate D2E/DX2                !
 ! A105  A(36,35,103)          124.9255         estimate D2E/DX2                !
 ! A106  A(35,36,37)           107.9313         estimate D2E/DX2                !
 ! A107  A(35,36,38)           125.0753         estimate D2E/DX2                !
 ! A108  A(37,36,38)           126.9935         estimate D2E/DX2                !
 ! A109  A(31,37,36)           106.9962         estimate D2E/DX2                !
 ! A110  A(31,37,42)           123.9003         estimate D2E/DX2                !
 ! A111  A(36,37,42)           129.1035         estimate D2E/DX2                !
 ! A112  A(36,38,39)           126.9912         estimate D2E/DX2                !
 ! A113  A(36,38,43)           125.077          estimate D2E/DX2                !
 ! A114  A(39,38,43)           107.9318         estimate D2E/DX2                !
 ! A115  A(38,39,40)           129.102          estimate D2E/DX2                !
 ! A116  A(38,39,45)           106.9945         estimate D2E/DX2                !
 ! A117  A(40,39,45)           123.9035         estimate D2E/DX2                !
 ! A118  A(39,40,41)           129.8949         estimate D2E/DX2                !
 ! A119  A(39,40,84)           116.1463         estimate D2E/DX2                !
 ! A120  A(41,40,84)           113.9589         estimate D2E/DX2                !
 ! A121  A(40,41,42)           128.0211         estimate D2E/DX2                !
 ! A122  A(40,41,83)           115.9886         estimate D2E/DX2                !
 ! A123  A(42,41,83)           115.9903         estimate D2E/DX2                !
 ! A124  A(37,42,41)           129.8938         estimate D2E/DX2                !
 ! A125  A(37,42,82)           116.1433         estimate D2E/DX2                !
 ! A126  A(41,42,82)           113.9629         estimate D2E/DX2                !
 ! A127  A(38,43,44)           110.144          estimate D2E/DX2                !
 ! A128  A(38,43,104)          124.9287         estimate D2E/DX2                !
 ! A129  A(44,43,104)          124.9274         estimate D2E/DX2                !
 ! A130  A(43,44,45)           107.9325         estimate D2E/DX2                !
 ! A131  A(43,44,46)           125.0712         estimate D2E/DX2                !
 ! A132  A(45,44,46)           126.9963         estimate D2E/DX2                !
 ! A133  A(39,45,44)           106.9972         estimate D2E/DX2                !
 ! A134  A(39,45,50)           123.9034         estimate D2E/DX2                !
 ! A135  A(44,45,50)           129.0994         estimate D2E/DX2                !
 ! A136  A(44,46,47)           126.9969         estimate D2E/DX2                !
 ! A137  A(44,46,51)           125.0673         estimate D2E/DX2                !
 ! A138  A(47,46,51)           107.9358         estimate D2E/DX2                !
 ! A139  A(46,47,48)           129.093          estimate D2E/DX2                !
 ! A140  A(46,47,53)           106.9922         estimate D2E/DX2                !
 ! A141  A(48,47,53)           123.9148         estimate D2E/DX2                !
 ! A142  A(47,48,49)           129.8962         estimate D2E/DX2                !
 ! A143  A(47,48,86)           116.1547         estimate D2E/DX2                !
 ! A144  A(49,48,86)           113.9491         estimate D2E/DX2                !
 ! A145  A(48,49,50)           128.0253         estimate D2E/DX2                !
 ! A146  A(48,49,87)           115.9866         estimate D2E/DX2                !
 ! A147  A(50,49,87)           115.9881         estimate D2E/DX2                !
 ! A148  A(45,50,49)           129.8928         estimate D2E/DX2                !
 ! A149  A(45,50,85)           116.1439         estimate D2E/DX2                !
 ! A150  A(49,50,85)           113.9632         estimate D2E/DX2                !
 ! A151  A(46,51,52)           110.1442         estimate D2E/DX2                !
 ! A152  A(46,51,105)          124.9279         estimate D2E/DX2                !
 ! A153  A(52,51,105)          124.9279         estimate D2E/DX2                !
 ! A154  A(51,52,53)           107.9355         estimate D2E/DX2                !
 ! A155  A(51,52,54)           125.0675         estimate D2E/DX2                !
 ! A156  A(53,52,54)           126.997          estimate D2E/DX2                !
 ! A157  A(47,53,52)           106.9923         estimate D2E/DX2                !
 ! A158  A(47,53,58)           123.9131         estimate D2E/DX2                !
 ! A159  A(52,53,58)           129.0946         estimate D2E/DX2                !
 ! A160  A(52,54,55)           126.9949         estimate D2E/DX2                !
 ! A161  A(52,54,59)           125.073          estimate D2E/DX2                !
 ! A162  A(55,54,59)           107.9321         estimate D2E/DX2                !
 ! A163  A(54,55,56)           129.0998         estimate D2E/DX2                !
 ! A164  A(54,55,61)           106.9953         estimate D2E/DX2                !
 ! A165  A(56,55,61)           123.9049         estimate D2E/DX2                !
 ! A166  A(55,56,57)           129.8934         estimate D2E/DX2                !
 ! A167  A(55,56,89)           116.1426         estimate D2E/DX2                !
 ! A168  A(57,56,89)           113.964          estimate D2E/DX2                !
 ! A169  A(56,57,58)           128.0246         estimate D2E/DX2                !
 ! A170  A(56,57,90)           115.9875         estimate D2E/DX2                !
 ! A171  A(58,57,90)           115.9879         estimate D2E/DX2                !
 ! A172  A(53,58,57)           129.8957         estimate D2E/DX2                !
 ! A173  A(53,58,88)           116.1536         estimate D2E/DX2                !
 ! A174  A(57,58,88)           113.9507         estimate D2E/DX2                !
 ! A175  A(54,59,60)           110.1459         estimate D2E/DX2                !
 ! A176  A(54,59,106)          124.9262         estimate D2E/DX2                !
 ! A177  A(60,59,106)          124.9279         estimate D2E/DX2                !
 ! A178  A(59,60,61)           107.9318         estimate D2E/DX2                !
 ! A179  A(59,60,62)           125.0737         estimate D2E/DX2                !
 ! A180  A(61,60,62)           126.9945         estimate D2E/DX2                !
 ! A181  A(55,61,60)           106.9949         estimate D2E/DX2                !
 ! A182  A(55,61,66)           123.9045         estimate D2E/DX2                !
 ! A183  A(60,61,66)           129.1006         estimate D2E/DX2                !
 ! A184  A(60,62,63)           126.9931         estimate D2E/DX2                !
 ! A185  A(60,62,67)           125.0738         estimate D2E/DX2                !
 ! A186  A(63,62,67)           107.9332         estimate D2E/DX2                !
 ! A187  A(62,63,64)           129.1009         estimate D2E/DX2                !
 ! A188  A(62,63,69)           106.9935         estimate D2E/DX2                !
 ! A189  A(64,63,69)           123.9056         estimate D2E/DX2                !
 ! A190  A(63,64,65)           129.8944         estimate D2E/DX2                !
 ! A191  A(63,64,93)           116.1479         estimate D2E/DX2                !
 ! A192  A(65,64,93)           113.9577         estimate D2E/DX2                !
 ! A193  A(64,65,66)           128.0223         estimate D2E/DX2                !
 ! A194  A(64,65,91)           115.989          estimate D2E/DX2                !
 ! A195  A(66,65,91)           115.9887         estimate D2E/DX2                !
 ! A196  A(61,66,65)           129.8942         estimate D2E/DX2                !
 ! A197  A(61,66,92)           116.1462         estimate D2E/DX2                !
 ! A198  A(65,66,92)           113.9596         estimate D2E/DX2                !
 ! A199  A(62,67,68)           110.1445         estimate D2E/DX2                !
 ! A200  A(62,67,107)          124.9302         estimate D2E/DX2                !
 ! A201  A(68,67,107)          124.9253         estimate D2E/DX2                !
 ! A202  A(3,68,67)            125.0711         estimate D2E/DX2                !
 ! A203  A(3,68,69)            126.9946         estimate D2E/DX2                !
 ! A204  A(67,68,69)           107.9343         estimate D2E/DX2                !
 ! A205  A(63,69,68)           106.9945         estimate D2E/DX2                !
 ! A206  A(63,69,72)           123.9064         estimate D2E/DX2                !
 ! A207  A(68,69,72)           129.0991         estimate D2E/DX2                !
 ! A208  A(2,70,71)            129.8944         estimate D2E/DX2                !
 ! A209  A(2,70,96)            116.1497         estimate D2E/DX2                !
 ! A210  A(71,70,96)           113.956          estimate D2E/DX2                !
 ! A211  A(70,71,72)           128.0233         estimate D2E/DX2                !
 ! A212  A(70,71,94)           115.9879         estimate D2E/DX2                !
 ! A213  A(72,71,94)           115.9888         estimate D2E/DX2                !
 ! A214  A(69,72,71)           129.895          estimate D2E/DX2                !
 ! A215  A(69,72,95)           116.1486         estimate D2E/DX2                !
 ! A216  A(71,72,95)           113.9563         estimate D2E/DX2                !
 ! D1    D(5,1,2,3)              0.0            estimate D2E/DX2                !
 ! D2    D(5,1,2,70)           180.0            estimate D2E/DX2                !
 ! D3    D(10,1,2,3)           180.0            estimate D2E/DX2                !
 ! D4    D(10,1,2,70)            0.0            estimate D2E/DX2                !
 ! D5    D(2,1,5,4)              0.0            estimate D2E/DX2                !
 ! D6    D(2,1,5,6)            180.0            estimate D2E/DX2                !
 ! D7    D(10,1,5,4)           180.0            estimate D2E/DX2                !
 ! D8    D(10,1,5,6)             0.0            estimate D2E/DX2                !
 ! D9    D(2,1,10,9)           180.0            estimate D2E/DX2                !
 ! D10   D(2,1,10,97)            0.0            estimate D2E/DX2                !
 ! D11   D(5,1,10,9)             0.0            estimate D2E/DX2                !
 ! D12   D(5,1,10,97)          180.0            estimate D2E/DX2                !
 ! D13   D(1,2,3,4)              0.0            estimate D2E/DX2                !
 ! D14   D(1,2,3,68)           180.0            estimate D2E/DX2                !
 ! D15   D(70,2,3,4)           180.0            estimate D2E/DX2                !
 ! D16   D(70,2,3,68)            0.0            estimate D2E/DX2                !
 ! D17   D(1,2,70,71)          180.0            estimate D2E/DX2                !
 ! D18   D(1,2,70,96)            0.0            estimate D2E/DX2                !
 ! D19   D(3,2,70,71)            0.0            estimate D2E/DX2                !
 ! D20   D(3,2,70,96)          180.0            estimate D2E/DX2                !
 ! D21   D(2,3,4,5)              0.0            estimate D2E/DX2                !
 ! D22   D(2,3,4,108)          180.0            estimate D2E/DX2                !
 ! D23   D(68,3,4,5)           180.0            estimate D2E/DX2                !
 ! D24   D(68,3,4,108)           0.0            estimate D2E/DX2                !
 ! D25   D(2,3,68,67)          180.0            estimate D2E/DX2                !
 ! D26   D(2,3,68,69)            0.0            estimate D2E/DX2                !
 ! D27   D(4,3,68,67)            0.0            estimate D2E/DX2                !
 ! D28   D(4,3,68,69)          180.0            estimate D2E/DX2                !
 ! D29   D(3,4,5,1)              0.0            estimate D2E/DX2                !
 ! D30   D(3,4,5,6)            180.0            estimate D2E/DX2                !
 ! D31   D(108,4,5,1)          180.0            estimate D2E/DX2                !
 ! D32   D(108,4,5,6)            0.0            estimate D2E/DX2                !
 ! D33   D(1,5,6,7)              0.0            estimate D2E/DX2                !
 ! D34   D(1,5,6,11)           180.0            estimate D2E/DX2                !
 ! D35   D(4,5,6,7)            180.0            estimate D2E/DX2                !
 ! D36   D(4,5,6,11)             0.0            estimate D2E/DX2                !
 ! D37   D(5,6,7,8)              0.0            estimate D2E/DX2                !
 ! D38   D(5,6,7,13)           180.0            estimate D2E/DX2                !
 ! D39   D(11,6,7,8)           180.0            estimate D2E/DX2                !
 ! D40   D(11,6,7,13)            0.0            estimate D2E/DX2                !
 ! D41   D(5,6,11,12)          180.0            estimate D2E/DX2                !
 ! D42   D(5,6,11,100)           0.0            estimate D2E/DX2                !
 ! D43   D(7,6,11,12)            0.0            estimate D2E/DX2                !
 ! D44   D(7,6,11,100)         180.0            estimate D2E/DX2                !
 ! D45   D(6,7,8,9)              0.0            estimate D2E/DX2                !
 ! D46   D(6,7,8,99)           180.0            estimate D2E/DX2                !
 ! D47   D(13,7,8,9)           180.0            estimate D2E/DX2                !
 ! D48   D(13,7,8,99)            0.0            estimate D2E/DX2                !
 ! D49   D(6,7,13,12)            0.0            estimate D2E/DX2                !
 ! D50   D(6,7,13,18)          180.0            estimate D2E/DX2                !
 ! D51   D(8,7,13,12)          180.0            estimate D2E/DX2                !
 ! D52   D(8,7,13,18)            0.0            estimate D2E/DX2                !
 ! D53   D(7,8,9,10)             0.0            estimate D2E/DX2                !
 ! D54   D(7,8,9,98)           180.0            estimate D2E/DX2                !
 ! D55   D(99,8,9,10)          180.0            estimate D2E/DX2                !
 ! D56   D(99,8,9,98)            0.0            estimate D2E/DX2                !
 ! D57   D(8,9,10,1)             0.0            estimate D2E/DX2                !
 ! D58   D(8,9,10,97)          180.0            estimate D2E/DX2                !
 ! D59   D(98,9,10,1)          180.0            estimate D2E/DX2                !
 ! D60   D(98,9,10,97)           0.0            estimate D2E/DX2                !
 ! D61   D(6,11,12,13)           0.0            estimate D2E/DX2                !
 ! D62   D(6,11,12,14)         180.0            estimate D2E/DX2                !
 ! D63   D(100,11,12,13)       180.0            estimate D2E/DX2                !
 ! D64   D(100,11,12,14)         0.0            estimate D2E/DX2                !
 ! D65   D(11,12,13,7)           0.0            estimate D2E/DX2                !
 ! D66   D(11,12,13,18)        180.0            estimate D2E/DX2                !
 ! D67   D(14,12,13,7)         180.0            estimate D2E/DX2                !
 ! D68   D(14,12,13,18)          0.0            estimate D2E/DX2                !
 ! D69   D(11,12,14,15)        180.0            estimate D2E/DX2                !
 ! D70   D(11,12,14,19)          0.0            estimate D2E/DX2                !
 ! D71   D(13,12,14,15)          0.0            estimate D2E/DX2                !
 ! D72   D(13,12,14,19)        180.0            estimate D2E/DX2                !
 ! D73   D(7,13,18,17)         180.0            estimate D2E/DX2                !
 ! D74   D(7,13,18,73)           0.0            estimate D2E/DX2                !
 ! D75   D(12,13,18,17)          0.0            estimate D2E/DX2                !
 ! D76   D(12,13,18,73)        180.0            estimate D2E/DX2                !
 ! D77   D(12,14,15,16)          0.0            estimate D2E/DX2                !
 ! D78   D(12,14,15,21)        180.0            estimate D2E/DX2                !
 ! D79   D(19,14,15,16)        180.0            estimate D2E/DX2                !
 ! D80   D(19,14,15,21)          0.0            estimate D2E/DX2                !
 ! D81   D(12,14,19,20)        180.0            estimate D2E/DX2                !
 ! D82   D(12,14,19,101)         0.0            estimate D2E/DX2                !
 ! D83   D(15,14,19,20)          0.0            estimate D2E/DX2                !
 ! D84   D(15,14,19,101)       180.0            estimate D2E/DX2                !
 ! D85   D(14,15,16,17)          0.0            estimate D2E/DX2                !
 ! D86   D(14,15,16,75)        180.0            estimate D2E/DX2                !
 ! D87   D(21,15,16,17)        180.0            estimate D2E/DX2                !
 ! D88   D(21,15,16,75)          0.0            estimate D2E/DX2                !
 ! D89   D(14,15,21,20)          0.0            estimate D2E/DX2                !
 ! D90   D(14,15,21,26)        180.0            estimate D2E/DX2                !
 ! D91   D(16,15,21,20)        180.0            estimate D2E/DX2                !
 ! D92   D(16,15,21,26)          0.0            estimate D2E/DX2                !
 ! D93   D(15,16,17,18)          0.0            estimate D2E/DX2                !
 ! D94   D(15,16,17,74)        180.0            estimate D2E/DX2                !
 ! D95   D(75,16,17,18)        180.0            estimate D2E/DX2                !
 ! D96   D(75,16,17,74)          0.0            estimate D2E/DX2                !
 ! D97   D(16,17,18,13)          0.0            estimate D2E/DX2                !
 ! D98   D(16,17,18,73)        180.0            estimate D2E/DX2                !
 ! D99   D(74,17,18,13)        180.0            estimate D2E/DX2                !
 ! D100  D(74,17,18,73)          0.0            estimate D2E/DX2                !
 ! D101  D(14,19,20,21)          0.0            estimate D2E/DX2                !
 ! D102  D(14,19,20,22)        180.0            estimate D2E/DX2                !
 ! D103  D(101,19,20,21)       180.0            estimate D2E/DX2                !
 ! D104  D(101,19,20,22)         0.0            estimate D2E/DX2                !
 ! D105  D(19,20,21,15)          0.0            estimate D2E/DX2                !
 ! D106  D(19,20,21,26)        180.0            estimate D2E/DX2                !
 ! D107  D(22,20,21,15)        180.0            estimate D2E/DX2                !
 ! D108  D(22,20,21,26)          0.0            estimate D2E/DX2                !
 ! D109  D(19,20,22,23)        180.0            estimate D2E/DX2                !
 ! D110  D(19,20,22,27)          0.0            estimate D2E/DX2                !
 ! D111  D(21,20,22,23)          0.0            estimate D2E/DX2                !
 ! D112  D(21,20,22,27)        180.0            estimate D2E/DX2                !
 ! D113  D(15,21,26,25)        180.0            estimate D2E/DX2                !
 ! D114  D(15,21,26,76)          0.0            estimate D2E/DX2                !
 ! D115  D(20,21,26,25)          0.0            estimate D2E/DX2                !
 ! D116  D(20,21,26,76)        180.0            estimate D2E/DX2                !
 ! D117  D(20,22,23,24)          0.0            estimate D2E/DX2                !
 ! D118  D(20,22,23,29)        180.0            estimate D2E/DX2                !
 ! D119  D(27,22,23,24)        180.0            estimate D2E/DX2                !
 ! D120  D(27,22,23,29)          0.0            estimate D2E/DX2                !
 ! D121  D(20,22,27,28)        180.0            estimate D2E/DX2                !
 ! D122  D(20,22,27,102)         0.0            estimate D2E/DX2                !
 ! D123  D(23,22,27,28)          0.0            estimate D2E/DX2                !
 ! D124  D(23,22,27,102)       180.0            estimate D2E/DX2                !
 ! D125  D(22,23,24,25)          0.0            estimate D2E/DX2                !
 ! D126  D(22,23,24,78)        180.0            estimate D2E/DX2                !
 ! D127  D(29,23,24,25)        180.0            estimate D2E/DX2                !
 ! D128  D(29,23,24,78)          0.0            estimate D2E/DX2                !
 ! D129  D(22,23,29,28)          0.0            estimate D2E/DX2                !
 ! D130  D(22,23,29,34)        180.0            estimate D2E/DX2                !
 ! D131  D(24,23,29,28)        180.0            estimate D2E/DX2                !
 ! D132  D(24,23,29,34)          0.0            estimate D2E/DX2                !
 ! D133  D(23,24,25,26)          0.0            estimate D2E/DX2                !
 ! D134  D(23,24,25,77)        180.0            estimate D2E/DX2                !
 ! D135  D(78,24,25,26)        180.0            estimate D2E/DX2                !
 ! D136  D(78,24,25,77)          0.0            estimate D2E/DX2                !
 ! D137  D(24,25,26,21)          0.0            estimate D2E/DX2                !
 ! D138  D(24,25,26,76)        180.0            estimate D2E/DX2                !
 ! D139  D(77,25,26,21)        180.0            estimate D2E/DX2                !
 ! D140  D(77,25,26,76)          0.0            estimate D2E/DX2                !
 ! D141  D(22,27,28,29)          0.0            estimate D2E/DX2                !
 ! D142  D(22,27,28,30)        180.0            estimate D2E/DX2                !
 ! D143  D(102,27,28,29)       180.0            estimate D2E/DX2                !
 ! D144  D(102,27,28,30)         0.0            estimate D2E/DX2                !
 ! D145  D(27,28,29,23)          0.0            estimate D2E/DX2                !
 ! D146  D(27,28,29,34)        180.0            estimate D2E/DX2                !
 ! D147  D(30,28,29,23)        180.0            estimate D2E/DX2                !
 ! D148  D(30,28,29,34)          0.0            estimate D2E/DX2                !
 ! D149  D(27,28,30,31)        180.0            estimate D2E/DX2                !
 ! D150  D(27,28,30,35)          0.0            estimate D2E/DX2                !
 ! D151  D(29,28,30,31)          0.0            estimate D2E/DX2                !
 ! D152  D(29,28,30,35)        180.0            estimate D2E/DX2                !
 ! D153  D(23,29,34,33)        180.0            estimate D2E/DX2                !
 ! D154  D(23,29,34,79)          0.0            estimate D2E/DX2                !
 ! D155  D(28,29,34,33)          0.0            estimate D2E/DX2                !
 ! D156  D(28,29,34,79)        180.0            estimate D2E/DX2                !
 ! D157  D(28,30,31,32)          0.0            estimate D2E/DX2                !
 ! D158  D(28,30,31,37)        180.0            estimate D2E/DX2                !
 ! D159  D(35,30,31,32)        180.0            estimate D2E/DX2                !
 ! D160  D(35,30,31,37)          0.0            estimate D2E/DX2                !
 ! D161  D(28,30,35,36)        180.0            estimate D2E/DX2                !
 ! D162  D(28,30,35,103)         0.0            estimate D2E/DX2                !
 ! D163  D(31,30,35,36)          0.0            estimate D2E/DX2                !
 ! D164  D(31,30,35,103)       180.0            estimate D2E/DX2                !
 ! D165  D(30,31,32,33)          0.0            estimate D2E/DX2                !
 ! D166  D(30,31,32,81)        180.0            estimate D2E/DX2                !
 ! D167  D(37,31,32,33)        180.0            estimate D2E/DX2                !
 ! D168  D(37,31,32,81)          0.0            estimate D2E/DX2                !
 ! D169  D(30,31,37,36)          0.0            estimate D2E/DX2                !
 ! D170  D(30,31,37,42)        180.0            estimate D2E/DX2                !
 ! D171  D(32,31,37,36)        180.0            estimate D2E/DX2                !
 ! D172  D(32,31,37,42)          0.0            estimate D2E/DX2                !
 ! D173  D(31,32,33,34)          0.0            estimate D2E/DX2                !
 ! D174  D(31,32,33,80)        180.0            estimate D2E/DX2                !
 ! D175  D(81,32,33,34)        180.0            estimate D2E/DX2                !
 ! D176  D(81,32,33,80)          0.0            estimate D2E/DX2                !
 ! D177  D(32,33,34,29)          0.0            estimate D2E/DX2                !
 ! D178  D(32,33,34,79)        180.0            estimate D2E/DX2                !
 ! D179  D(80,33,34,29)        180.0            estimate D2E/DX2                !
 ! D180  D(80,33,34,79)          0.0            estimate D2E/DX2                !
 ! D181  D(30,35,36,37)          0.0            estimate D2E/DX2                !
 ! D182  D(30,35,36,38)        180.0            estimate D2E/DX2                !
 ! D183  D(103,35,36,37)       180.0            estimate D2E/DX2                !
 ! D184  D(103,35,36,38)         0.0            estimate D2E/DX2                !
 ! D185  D(35,36,37,31)          0.0            estimate D2E/DX2                !
 ! D186  D(35,36,37,42)        180.0            estimate D2E/DX2                !
 ! D187  D(38,36,37,31)        180.0            estimate D2E/DX2                !
 ! D188  D(38,36,37,42)          0.0            estimate D2E/DX2                !
 ! D189  D(35,36,38,39)        180.0            estimate D2E/DX2                !
 ! D190  D(35,36,38,43)          0.0            estimate D2E/DX2                !
 ! D191  D(37,36,38,39)          0.0            estimate D2E/DX2                !
 ! D192  D(37,36,38,43)        180.0            estimate D2E/DX2                !
 ! D193  D(31,37,42,41)        180.0            estimate D2E/DX2                !
 ! D194  D(31,37,42,82)          0.0            estimate D2E/DX2                !
 ! D195  D(36,37,42,41)          0.0            estimate D2E/DX2                !
 ! D196  D(36,37,42,82)        180.0            estimate D2E/DX2                !
 ! D197  D(36,38,39,40)          0.0            estimate D2E/DX2                !
 ! D198  D(36,38,39,45)        180.0            estimate D2E/DX2                !
 ! D199  D(43,38,39,40)        180.0            estimate D2E/DX2                !
 ! D200  D(43,38,39,45)          0.0            estimate D2E/DX2                !
 ! D201  D(36,38,43,44)        180.0            estimate D2E/DX2                !
 ! D202  D(36,38,43,104)         0.0            estimate D2E/DX2                !
 ! D203  D(39,38,43,44)          0.0            estimate D2E/DX2                !
 ! D204  D(39,38,43,104)       180.0            estimate D2E/DX2                !
 ! D205  D(38,39,40,41)          0.0            estimate D2E/DX2                !
 ! D206  D(38,39,40,84)        180.0            estimate D2E/DX2                !
 ! D207  D(45,39,40,41)        180.0            estimate D2E/DX2                !
 ! D208  D(45,39,40,84)          0.0            estimate D2E/DX2                !
 ! D209  D(38,39,45,44)          0.0            estimate D2E/DX2                !
 ! D210  D(38,39,45,50)        180.0            estimate D2E/DX2                !
 ! D211  D(40,39,45,44)        180.0            estimate D2E/DX2                !
 ! D212  D(40,39,45,50)          0.0            estimate D2E/DX2                !
 ! D213  D(39,40,41,42)          0.0            estimate D2E/DX2                !
 ! D214  D(39,40,41,83)        180.0            estimate D2E/DX2                !
 ! D215  D(84,40,41,42)        180.0            estimate D2E/DX2                !
 ! D216  D(84,40,41,83)          0.0            estimate D2E/DX2                !
 ! D217  D(40,41,42,37)          0.0            estimate D2E/DX2                !
 ! D218  D(40,41,42,82)        180.0            estimate D2E/DX2                !
 ! D219  D(83,41,42,37)        180.0            estimate D2E/DX2                !
 ! D220  D(83,41,42,82)          0.0            estimate D2E/DX2                !
 ! D221  D(38,43,44,45)          0.0            estimate D2E/DX2                !
 ! D222  D(38,43,44,46)        180.0            estimate D2E/DX2                !
 ! D223  D(104,43,44,45)       180.0            estimate D2E/DX2                !
 ! D224  D(104,43,44,46)         0.0            estimate D2E/DX2                !
 ! D225  D(43,44,45,39)          0.0            estimate D2E/DX2                !
 ! D226  D(43,44,45,50)        180.0            estimate D2E/DX2                !
 ! D227  D(46,44,45,39)        180.0            estimate D2E/DX2                !
 ! D228  D(46,44,45,50)          0.0            estimate D2E/DX2                !
 ! D229  D(43,44,46,47)        180.0            estimate D2E/DX2                !
 ! D230  D(43,44,46,51)          0.0            estimate D2E/DX2                !
 ! D231  D(45,44,46,47)          0.0            estimate D2E/DX2                !
 ! D232  D(45,44,46,51)        180.0            estimate D2E/DX2                !
 ! D233  D(39,45,50,49)        180.0            estimate D2E/DX2                !
 ! D234  D(39,45,50,85)          0.0            estimate D2E/DX2                !
 ! D235  D(44,45,50,49)          0.0            estimate D2E/DX2                !
 ! D236  D(44,45,50,85)        180.0            estimate D2E/DX2                !
 ! D237  D(44,46,47,48)          0.0            estimate D2E/DX2                !
 ! D238  D(44,46,47,53)        180.0            estimate D2E/DX2                !
 ! D239  D(51,46,47,48)        180.0            estimate D2E/DX2                !
 ! D240  D(51,46,47,53)          0.0            estimate D2E/DX2                !
 ! D241  D(44,46,51,52)        180.0            estimate D2E/DX2                !
 ! D242  D(44,46,51,105)         0.0            estimate D2E/DX2                !
 ! D243  D(47,46,51,52)          0.0            estimate D2E/DX2                !
 ! D244  D(47,46,51,105)       180.0            estimate D2E/DX2                !
 ! D245  D(46,47,48,49)          0.0            estimate D2E/DX2                !
 ! D246  D(46,47,48,86)        180.0            estimate D2E/DX2                !
 ! D247  D(53,47,48,49)        180.0            estimate D2E/DX2                !
 ! D248  D(53,47,48,86)          0.0            estimate D2E/DX2                !
 ! D249  D(46,47,53,52)          0.0            estimate D2E/DX2                !
 ! D250  D(46,47,53,58)        180.0            estimate D2E/DX2                !
 ! D251  D(48,47,53,52)        180.0            estimate D2E/DX2                !
 ! D252  D(48,47,53,58)          0.0            estimate D2E/DX2                !
 ! D253  D(47,48,49,50)          0.0            estimate D2E/DX2                !
 ! D254  D(47,48,49,87)        180.0            estimate D2E/DX2                !
 ! D255  D(86,48,49,50)        180.0            estimate D2E/DX2                !
 ! D256  D(86,48,49,87)          0.0            estimate D2E/DX2                !
 ! D257  D(48,49,50,45)          0.0            estimate D2E/DX2                !
 ! D258  D(48,49,50,85)        180.0            estimate D2E/DX2                !
 ! D259  D(87,49,50,45)        180.0            estimate D2E/DX2                !
 ! D260  D(87,49,50,85)          0.0            estimate D2E/DX2                !
 ! D261  D(46,51,52,53)          0.0            estimate D2E/DX2                !
 ! D262  D(46,51,52,54)        180.0            estimate D2E/DX2                !
 ! D263  D(105,51,52,53)       180.0            estimate D2E/DX2                !
 ! D264  D(105,51,52,54)         0.0            estimate D2E/DX2                !
 ! D265  D(51,52,53,47)          0.0            estimate D2E/DX2                !
 ! D266  D(51,52,53,58)        180.0            estimate D2E/DX2                !
 ! D267  D(54,52,53,47)        180.0            estimate D2E/DX2                !
 ! D268  D(54,52,53,58)          0.0            estimate D2E/DX2                !
 ! D269  D(51,52,54,55)        180.0            estimate D2E/DX2                !
 ! D270  D(51,52,54,59)          0.0            estimate D2E/DX2                !
 ! D271  D(53,52,54,55)          0.0            estimate D2E/DX2                !
 ! D272  D(53,52,54,59)        180.0            estimate D2E/DX2                !
 ! D273  D(47,53,58,57)        180.0            estimate D2E/DX2                !
 ! D274  D(47,53,58,88)          0.0            estimate D2E/DX2                !
 ! D275  D(52,53,58,57)          0.0            estimate D2E/DX2                !
 ! D276  D(52,53,58,88)        180.0            estimate D2E/DX2                !
 ! D277  D(52,54,55,56)          0.0            estimate D2E/DX2                !
 ! D278  D(52,54,55,61)        180.0            estimate D2E/DX2                !
 ! D279  D(59,54,55,56)        180.0            estimate D2E/DX2                !
 ! D280  D(59,54,55,61)          0.0            estimate D2E/DX2                !
 ! D281  D(52,54,59,60)        180.0            estimate D2E/DX2                !
 ! D282  D(52,54,59,106)         0.0            estimate D2E/DX2                !
 ! D283  D(55,54,59,60)          0.0            estimate D2E/DX2                !
 ! D284  D(55,54,59,106)       180.0            estimate D2E/DX2                !
 ! D285  D(54,55,56,57)          0.0            estimate D2E/DX2                !
 ! D286  D(54,55,56,89)        180.0            estimate D2E/DX2                !
 ! D287  D(61,55,56,57)        180.0            estimate D2E/DX2                !
 ! D288  D(61,55,56,89)          0.0            estimate D2E/DX2                !
 ! D289  D(54,55,61,60)          0.0            estimate D2E/DX2                !
 ! D290  D(54,55,61,66)        180.0            estimate D2E/DX2                !
 ! D291  D(56,55,61,60)        180.0            estimate D2E/DX2                !
 ! D292  D(56,55,61,66)          0.0            estimate D2E/DX2                !
 ! D293  D(55,56,57,58)          0.0            estimate D2E/DX2                !
 ! D294  D(55,56,57,90)        180.0            estimate D2E/DX2                !
 ! D295  D(89,56,57,58)        180.0            estimate D2E/DX2                !
 ! D296  D(89,56,57,90)          0.0            estimate D2E/DX2                !
 ! D297  D(56,57,58,53)          0.0            estimate D2E/DX2                !
 ! D298  D(56,57,58,88)        180.0            estimate D2E/DX2                !
 ! D299  D(90,57,58,53)        180.0            estimate D2E/DX2                !
 ! D300  D(90,57,58,88)          0.0            estimate D2E/DX2                !
 ! D301  D(54,59,60,61)          0.0            estimate D2E/DX2                !
 ! D302  D(54,59,60,62)        180.0            estimate D2E/DX2                !
 ! D303  D(106,59,60,61)       180.0            estimate D2E/DX2                !
 ! D304  D(106,59,60,62)         0.0            estimate D2E/DX2                !
 ! D305  D(59,60,61,55)          0.0            estimate D2E/DX2                !
 ! D306  D(59,60,61,66)        180.0            estimate D2E/DX2                !
 ! D307  D(62,60,61,55)        180.0            estimate D2E/DX2                !
 ! D308  D(62,60,61,66)          0.0            estimate D2E/DX2                !
 ! D309  D(59,60,62,63)        180.0            estimate D2E/DX2                !
 ! D310  D(59,60,62,67)          0.0            estimate D2E/DX2                !
 ! D311  D(61,60,62,63)          0.0            estimate D2E/DX2                !
 ! D312  D(61,60,62,67)        180.0            estimate D2E/DX2                !
 ! D313  D(55,61,66,65)        180.0            estimate D2E/DX2                !
 ! D314  D(55,61,66,92)          0.0            estimate D2E/DX2                !
 ! D315  D(60,61,66,65)          0.0            estimate D2E/DX2                !
 ! D316  D(60,61,66,92)        180.0            estimate D2E/DX2                !
 ! D317  D(60,62,63,64)          0.0            estimate D2E/DX2                !
 ! D318  D(60,62,63,69)        180.0            estimate D2E/DX2                !
 ! D319  D(67,62,63,64)        180.0            estimate D2E/DX2                !
 ! D320  D(67,62,63,69)          0.0            estimate D2E/DX2                !
 ! D321  D(60,62,67,68)        180.0            estimate D2E/DX2                !
 ! D322  D(60,62,67,107)         0.0            estimate D2E/DX2                !
 ! D323  D(63,62,67,68)          0.0            estimate D2E/DX2                !
 ! D324  D(63,62,67,107)       180.0            estimate D2E/DX2                !
 ! D325  D(62,63,64,65)          0.0            estimate D2E/DX2                !
 ! D326  D(62,63,64,93)        180.0            estimate D2E/DX2                !
 ! D327  D(69,63,64,65)        180.0            estimate D2E/DX2                !
 ! D328  D(69,63,64,93)          0.0            estimate D2E/DX2                !
 ! D329  D(62,63,69,68)          0.0            estimate D2E/DX2                !
 ! D330  D(62,63,69,72)        180.0            estimate D2E/DX2                !
 ! D331  D(64,63,69,68)        180.0            estimate D2E/DX2                !
 ! D332  D(64,63,69,72)          0.0            estimate D2E/DX2                !
 ! D333  D(63,64,65,66)          0.0            estimate D2E/DX2                !
 ! D334  D(63,64,65,91)        180.0            estimate D2E/DX2                !
 ! D335  D(93,64,65,66)        180.0            estimate D2E/DX2                !
 ! D336  D(93,64,65,91)          0.0            estimate D2E/DX2                !
 ! D337  D(64,65,66,61)          0.0            estimate D2E/DX2                !
 ! D338  D(64,65,66,92)        180.0            estimate D2E/DX2                !
 ! D339  D(91,65,66,61)        180.0            estimate D2E/DX2                !
 ! D340  D(91,65,66,92)          0.0            estimate D2E/DX2                !
 ! D341  D(62,67,68,3)         180.0            estimate D2E/DX2                !
 ! D342  D(62,67,68,69)          0.0            estimate D2E/DX2                !
 ! D343  D(107,67,68,3)          0.0            estimate D2E/DX2                !
 ! D344  D(107,67,68,69)       180.0            estimate D2E/DX2                !
 ! D345  D(3,68,69,63)         180.0            estimate D2E/DX2                !
 ! D346  D(3,68,69,72)           0.0            estimate D2E/DX2                !
 ! D347  D(67,68,69,63)          0.0            estimate D2E/DX2                !
 ! D348  D(67,68,69,72)        180.0            estimate D2E/DX2                !
 ! D349  D(63,69,72,71)        180.0            estimate D2E/DX2                !
 ! D350  D(63,69,72,95)          0.0            estimate D2E/DX2                !
 ! D351  D(68,69,72,71)          0.0            estimate D2E/DX2                !
 ! D352  D(68,69,72,95)        180.0            estimate D2E/DX2                !
 ! D353  D(2,70,71,72)           0.0            estimate D2E/DX2                !
 ! D354  D(2,70,71,94)         180.0            estimate D2E/DX2                !
 ! D355  D(96,70,71,72)        180.0            estimate D2E/DX2                !
 ! D356  D(96,70,71,94)          0.0            estimate D2E/DX2                !
 ! D357  D(70,71,72,69)          0.0            estimate D2E/DX2                !
 ! D358  D(70,71,72,95)        180.0            estimate D2E/DX2                !
 ! D359  D(94,71,72,69)        180.0            estimate D2E/DX2                !
 ! D360  D(94,71,72,95)          0.0            estimate D2E/DX2                !
 --------------------------------------------------------------------------------
 Trust Radius=3.00D-01 FncErr=1.00D-07 GrdErr=1.00D-06 EigMax=2.50D+02 EigMin=1.00D-04
 Number of steps in this run=    648 maximum allowed number of steps=    648.
 GradGradGradGradGradGradGradGradGradGradGradGradGradGradGradGradGradGrad

 Stoichiometry    C72H36
 Framework group  CS[SG(C72H36)]
 Deg. of freedom   213
 Full point group                 CS      NOp   2
 Largest Abelian subgroup         CS      NOp   2
 Largest concise Abelian subgroup C1      NOp   1
                         Standard orientation:                         
 ---------------------------------------------------------------------
 Center     Atomic      Atomic             Coordinates (Angstroms)
 Number     Number       Type             X           Y           Z
 ---------------------------------------------------------------------
      1          6           0        5.984376    2.953230    0.000000
      2          6           0        6.482557    1.584420    0.000000
      3          6           0        5.331401    0.717072    0.000000
      4          6           0        4.183810    1.522758    0.000000
      5          6           0        4.545077    2.877633    0.000000
      6          6           0        3.623151    3.976407    0.000000
      7          6           0        3.947539    5.380746    0.000000
      8          6           0        5.195617    5.992047    0.000000
      9          6           0        6.466356    5.425978    0.000000
     10          6           0        6.803151    4.076254    0.000000
     11          6           0        2.226184    3.855990    0.000000
     12          6           0        1.632040    5.126076    0.000000
     13          6           0        2.686081    6.109099    0.000000
     14          6           0        0.219511    5.375228    0.000000
     15          6           0       -0.434636    6.659589    0.000000
     16          6           0        0.128672    7.930103    0.000000
     17          6           0        1.466013    8.313171    0.000000
     18          6           0        2.591546    7.495643    0.000000
     19          6           0       -0.773285    4.385054    0.000000
     20          6           0       -2.044746    4.976179    0.000000
     21          6           0       -1.869187    6.406738    0.000000
     22          6           0       -3.286862    4.259000    0.000000
     23          6           0       -4.613548    4.822253    0.000000
     24          6           0       -4.998819    6.157560    0.000000
     25          6           0       -4.220677    7.310698    0.000000
     26          6           0       -2.832990    7.408037    0.000000
     27          6           0       -3.410644    2.862315    0.000000
     28          6           0       -4.764584    2.497608    0.000000
     29          6           0       -5.549775    3.706287    0.000000
     30          6           0       -5.255064    1.149751    0.000000
     31          6           0       -6.633429    0.728463    0.000000
     32          6           0       -7.786920    1.503618    0.000000
     33          6           0       -7.932164    2.887136    0.000000
     34          6           0       -6.931739    3.853734    0.000000
     35          6           0       -4.452263    0.000160    0.000000
     36          6           0       -5.255064   -1.149480    0.000000
     37          6           0       -6.633413   -0.728194    0.000000
     38          6           0       -4.764539   -2.497337    0.000000
     39          6           0       -5.549775   -3.705991    0.000000
     40          6           0       -6.931715   -3.853461    0.000000
     41          6           0       -7.932177   -2.886853    0.000000
     42          6           0       -7.786940   -1.503359    0.000000
     43          6           0       -3.410620   -2.862122    0.000000
     44          6           0       -3.286829   -4.258837    0.000000
     45          6           0       -4.613567   -4.821933    0.000000
     46          6           0       -2.044745   -4.976137    0.000000
     47          6           0       -1.869323   -6.406773    0.000000
     48          6           0       -2.833306   -7.407925    0.000000
     49          6           0       -4.221020   -7.310395    0.000000
     50          6           0       -4.999020   -6.157186    0.000000
     51          6           0       -0.773213   -4.385199    0.000000
     52          6           0        0.219503   -5.375472    0.000000
     53          6           0       -0.434712   -6.659776    0.000000
     54          6           0        1.632033   -5.126326    0.000000
     55          6           0        2.686113   -6.109341    0.000000
     56          6           0        2.591532   -7.495894    0.000000
     57          6           0        1.465963   -8.313402    0.000000
     58          6           0        0.128620   -7.930322    0.000000
     59          6           0        2.226163   -3.856262    0.000000
     60          6           0        3.623182   -3.976617    0.000000
     61          6           0        3.947598   -5.380944    0.000000
     62          6           0        4.545108   -2.877817    0.000000
     63          6           0        5.984460   -2.953367    0.000000
     64          6           0        6.803245   -4.076353    0.000000
     65          6           0        6.466479   -5.426112    0.000000
     66          6           0        5.195759   -5.992217    0.000000
     67          6           0        4.183887   -1.522967    0.000000
     68          6           0        5.331451   -0.717252    0.000000
     69          6           0        6.482636   -1.584499    0.000000
     70          6           0        7.831604    1.250455    0.000000
     71          6           0        8.441211    0.000019    0.000000
     72          6           0        7.831682   -1.250436    0.000000
     73          1           0        3.532786    8.040046    0.000000
     74          1           0        1.654812    9.383425    0.000000
     75          1           0       -0.569348    8.763785    0.000000
     76          1           0       -2.462078    8.430123    0.000000
     77          1           0       -4.764065    8.251876    0.000000
     78          1           0       -6.069452    6.347339    0.000000
     79          1           0       -7.304742    4.875059    0.000000
     80          1           0       -8.953426    3.258766    0.000000
     81          1           0       -8.729001    0.960693    0.000000
     82          1           0       -8.729014   -0.960420    0.000000
     83          1           0       -8.953439   -3.258508    0.000000
     84          1           0       -7.304584   -4.874847    0.000000
     85          1           0       -6.069696   -6.346783    0.000000
     86          1           0       -2.462699   -8.430108    0.000000
     87          1           0       -4.764523   -8.251510    0.000000
     88          1           0       -0.569343   -8.764041    0.000000
     89          1           0        3.532754   -8.040293    0.000000
     90          1           0        1.654749   -9.383664    0.000000
     91          1           0        7.299027   -6.124660    0.000000
     92          1           0        5.196771   -7.079527    0.000000
     93          1           0        7.874229   -3.888505    0.000000
     94          1           0        9.527988    0.000057    0.000000
     95          1           0        8.531416   -2.082666    0.000000
     96          1           0        8.531304    2.082729    0.000000
     97          1           0        7.874122    3.888364    0.000000
     98          1           0        7.298866    6.124563    0.000000
     99          1           0        5.196566    7.079369    0.000000
    100          1           0        1.685407    2.919223    0.000000
    101          1           0       -0.585709    3.319780    0.000000
    102          1           0       -2.581911    2.167185    0.000000
    103          1           0       -3.370614    0.000135    0.000000
    104          1           0       -2.581935   -2.166964    0.000000
    105          1           0       -0.585357   -3.319984    0.000000
    106          1           0        1.685278   -2.919569    0.000000
    107          1           0        3.167476   -1.152992    0.000000
    108          1           0        3.167371    1.152831    0.000000
 ---------------------------------------------------------------------
 Rotational constants (GHZ):           0.0242863           0.0242843           0.0121426
 Standard basis: 6-311++G(d,p) (5D, 7F)
 There are  1440 symmetry adapted cartesian basis functions of A'  symmetry.
 There are   468 symmetry adapted cartesian basis functions of A"  symmetry.
 There are  1368 symmetry adapted basis functions of A'  symmetry.
 There are   468 symmetry adapted basis functions of A"  symmetry.
  1836 basis functions,  2916 primitive gaussians,  1908 cartesian basis functions
   234 alpha electrons      234 beta electrons
       nuclear repulsion energy      9236.0152725726 Hartrees.
 NAtoms=  108 NActive=  108 NUniq=  108 SFac= 1.00D+00 NAtFMM=   60 NAOKFM=T Big=T
 Integral buffers will be    131072 words long.
 Raffenetti 2 integral format.
 Two-electron integral symmetry is turned on.
 Nuclear repulsion after empirical dispersion term =     9235.9117934686 Hartrees.
 One-electron integrals computed using PRISM.
 PrsmSu:  requested number of processors reduced to:  10 ShMem   1 Linda.
 PrsmSu:  requested number of processors reduced to:  20 ShMem   1 Linda.
 NBasis=  1836 RedAO= T EigKep=  1.01D-06  NBF=  1368   468
 NBsUse=  1760 1.00D-06 EigRej=  7.91D-07 NBFU=  1292   468
 ExpMin= 3.60D-02 ExpMax= 4.56D+03 ExpMxC= 6.82D+02 IAcc=3 IRadAn=         5 AccDes= 0.00D+00
 Harris functional with IExCor= 4639 and IRadAn=       5 diagonalized for initial guess.
 HarFok:  IExCor= 4639 AccDes= 0.00D+00 IRadAn=         5 IDoV= 1 UseB2=F ITyADJ=14
 ICtDFT=  3500011 ScaDFX=  1.000000  1.000000  1.000000  1.000000
 CalDSu:  requested number of processors reduced to:  22 ShMem   1 Linda.
 FoFCou: FMM=F IPFlag=           0 FMFlag=      100000 FMFlg1=        2001
         NFxFlg=           0 DoJE=T BraDBF=F KetDBF=T FulRan=T
         wScrn=  0.000000 ICntrl=       500 IOpCl=  0 I1Cent=   200000004 NGrid=           0
         NMat0=    1 NMatS0=      1 NMatT0=    0 NMatD0=    1 NMtDS0=    0 NMtDT0=    0
 Petite list used in FoFCou.
 CoulSu:  requested number of processors reduced to:  19 ShMem   1 Linda.
 CoulSu:  requested number of processors reduced to:  20 ShMem   1 Linda.
 Initial guess orbital symmetries:
       Occupied  (A') (A') (A') (A') (A') (A') (A') (A') (A') (A')
                 (A') (A') (A') (A') (A') (A') (A') (A') (A') (A')
                 (A') (A') (A') (A') (A') (A') (A') (A') (A') (A')
                 (A') (A') (A') (A') (A') (A') (A') (A') (A') (A')
                 (A') (A') (A') (A') (A') (A') (A') (A') (A') (A')
                 (A') (A') (A') (A') (A') (A') (A') (A') (A') (A')
                 (A') (A') (A') (A') (A') (A') (A') (A') (A') (A')
                 (A') (A') (A') (A') (A') (A') (A') (A') (A') (A')
                 (A') (A') (A') (A') (A') (A') (A') (A') (A') (A')
                 (A') (A') (A') (A') (A') (A') (A') (A') (A') (A')
                 (A') (A') (A') (A') (A') (A') (A') (A') (A') (A')
                 (A') (A') (A') (A') (A') (A') (A') (A') (A') (A')
                 (A') (A') (A') (A') (A') (A') (A') (A') (A') (A')
                 (A') (A') (A') (A') (A') (A') (A') (A') (A') (A')
                 (A') (A') (A') (A') (A') (A') (A') (A') (A') (A')
                 (A') (A') (A') (A') (A') (A') (A') (A') (A') (A')
                 (A') (A') (A") (A') (A') (A") (A") (A') (A') (A')
                 (A') (A') (A') (A") (A") (A') (A') (A') (A') (A')
                 (A") (A") (A') (A') (A') (A') (A') (A') (A') (A')
                 (A') (A") (A") (A') (A') (A') (A') (A') (A') (A")
                 (A") (A') (A') (A") (A') (A') (A") (A") (A') (A')
                 (A') (A') (A") (A") (A") (A") (A") (A") (A") (A")
[...]
 Alpha virt. eigenvalues --    1.85356   1.85370   1.85556   1.85562   1.85941
 Alpha virt. eigenvalues --    1.87007   1.87008   1.87542   1.87787   1.87788
 Alpha virt. eigenvalues --    1.87835   1.87837   1.88501   1.88502   1.88579
 Alpha virt. eigenvalues --    1.88580   1.88759   1.88764   1.89387   1.89387
 Alpha virt. eigenvalues --    1.90537   1.90543   1.91179   1.91179   1.92910
 Alpha virt. eigenvalues --    1.92911   1.93416   1.93421   1.93991   1.94094
 Alpha virt. eigenvalues --    1.94094   1.94606   1.94608   1.95103   1.95106
 Alpha virt. eigenvalues --    1.96075   1.96075   1.97434   1.97435   1.97455
 Alpha virt. eigenvalues --    1.97460   1.98026   1.98308   1.98322   1.98426
 Alpha virt. eigenvalues --    1.98430   2.00319   2.00325   2.01320   2.01321
 Alpha virt. eigenvalues --    2.01631   2.01633   2.01633   2.01635   2.01862
 Alpha virt. eigenvalues --    2.02087   2.02088   2.02569   2.02572   2.02624
 Alpha virt. eigenvalues --    2.02625   2.03188   2.04186   2.04190   2.04448
 Alpha virt. eigenvalues --    2.04449   2.04873   2.05201   2.05202   2.05656
 Alpha virt. eigenvalues --    2.05660   2.05966   2.05970   2.06365   2.06366
 Alpha virt. eigenvalues --    2.06618   2.06619   2.07323   2.07337   2.07535
 Alpha virt. eigenvalues --    2.09281   2.09283   2.09316   2.09316   2.09476
 Alpha virt. eigenvalues --    2.09504   2.10811   2.10812   2.11122   2.11128
 Alpha virt. eigenvalues --    2.11281   2.11288   2.11702   2.12411   2.12411
 Alpha virt. eigenvalues --    2.12415   2.12491   2.12491   2.13365   2.13365
 Alpha virt. eigenvalues --    2.13778   2.14002   2.14005   2.14784   2.14784
 Alpha virt. eigenvalues --    2.15356   2.15358   2.15432   2.15433   2.17428
 Alpha virt. eigenvalues --    2.17430   2.17694   2.17695   2.18032   2.18033
 Alpha virt. eigenvalues --    2.18166   2.18166   2.19647   2.19648   2.19921
 Alpha virt. eigenvalues --    2.19937   2.19943   2.20909   2.20910   2.20965
 Alpha virt. eigenvalues --    2.20966   2.21768   2.21769   2.22184   2.22187
 Alpha virt. eigenvalues --    2.22797   2.22799   2.22892   2.23464   2.23465
 Alpha virt. eigenvalues --    2.26956   2.26956   2.27874   2.28197   2.28197
 Alpha virt. eigenvalues --    2.28482   2.28482   2.28571   2.29337   2.29338
 Alpha virt. eigenvalues --    2.29385   2.29389   2.30463   2.30464   2.32616
 Alpha virt. eigenvalues --    2.32617   2.33568   2.33579   2.37238   2.37239
 Alpha virt. eigenvalues --    2.38076   2.38349   2.38349   2.38654   2.38655
 Alpha virt. eigenvalues --    2.38870   2.38870   2.39000   2.39001   2.40193
 Alpha virt. eigenvalues --    2.40194   2.40755   2.40755   2.42645   2.42646
 Alpha virt. eigenvalues --    2.42727   2.42728   2.43386   2.44334   2.44336
 Alpha virt. eigenvalues --    2.44480   2.44970   2.44970   2.46152   2.48512
 Alpha virt. eigenvalues --    2.48514   2.48622   2.48624   2.49487   2.49488
 Alpha virt. eigenvalues --    2.50368   2.50373   2.52771   2.52771   2.53259
 Alpha virt. eigenvalues --    2.53260   2.54895   2.54898   2.55843   2.55844
 Alpha virt. eigenvalues --    2.56039   2.56040   2.56524   2.56527   2.56553
 Alpha virt. eigenvalues --    2.56847   2.57120   2.57121   2.57847   2.57847
 Alpha virt. eigenvalues --    2.58009   2.58009   2.58098   2.58098   2.58620
 Alpha virt. eigenvalues --    2.58620   2.60604   2.60604   2.61096   2.61217
 Alpha virt. eigenvalues --    2.61235   2.61936   2.62590   2.62590   2.63107
 Alpha virt. eigenvalues --    2.63108   2.63928   2.63928   2.66239   2.66240
 Alpha virt. eigenvalues --    2.66858   2.66859   2.68559   2.68572   2.70081
 Alpha virt. eigenvalues --    2.70081   2.70519   2.72235   2.72556   2.72557
 Alpha virt. eigenvalues --    2.73344   2.73344   2.73457   2.73983   2.73985
 Alpha virt. eigenvalues --    2.74561   2.74561   2.75255   2.75257   2.76018
 Alpha virt. eigenvalues --    2.76018   2.77286   2.77287   2.78880   2.78994
 Alpha virt. eigenvalues --    2.79001   2.79423   2.79426   2.80735   2.80735
 Alpha virt. eigenvalues --    2.80793   2.80793   2.81076   2.81078   2.81522
 Alpha virt. eigenvalues --    2.82640   2.82640   2.83098   2.83099   2.83247
 Alpha virt. eigenvalues --    2.83254   2.83255   2.83553   2.83558   2.83735
 Alpha virt. eigenvalues --    2.83735   2.83867   2.83868   2.84184   2.84268
 Alpha virt. eigenvalues --    2.84271   2.84770   2.84770   2.85015   2.85016
 Alpha virt. eigenvalues --    2.85130   2.85130   2.85192   2.85193   2.85577
 Alpha virt. eigenvalues --    2.85579   2.86688   2.86794   2.86798   2.87212
 Alpha virt. eigenvalues --    2.87213   2.87653   2.87657   2.88968   2.88969
 Alpha virt. eigenvalues --    2.89470   2.89471   2.89982   2.91297   2.91297
 Alpha virt. eigenvalues --    2.91622   2.91622   2.92036   2.92167   2.92176
 Alpha virt. eigenvalues --    2.92343   2.92344   2.96372   2.96379   2.96735
 Alpha virt. eigenvalues --    2.96735   2.98245   2.98251   2.98355   2.98357
 Alpha virt. eigenvalues --    2.98439   2.98443   2.98877   2.98877   2.99134
 Alpha virt. eigenvalues --    2.99143   2.99351   2.99351   3.00158   3.00160
 Alpha virt. eigenvalues --    3.00566   3.01741   3.01741   3.01785   3.01802
 Alpha virt. eigenvalues --    3.02176   3.04669   3.04669   3.04850   3.04984
 Alpha virt. eigenvalues --    3.05490   3.05491   3.05591   3.05591   3.05733
 Alpha virt. eigenvalues --    3.05735   3.06268   3.06268   3.08375   3.08376
 Alpha virt. eigenvalues --    3.08481   3.08488   3.08932   3.08932   3.09172
 Alpha virt. eigenvalues --    3.09179   3.10190   3.10190   3.11239   3.11240
 Alpha virt. eigenvalues --    3.11268   3.11269   3.11813   3.11817   3.13183
 Alpha virt. eigenvalues --    3.13277   3.13282   3.14245   3.14246   3.15274
 Alpha virt. eigenvalues --    3.15275   3.15574   3.15575   3.15659   3.16851
 Alpha virt. eigenvalues --    3.16852   3.18490   3.18491   3.18604   3.18604
 Alpha virt. eigenvalues --    3.18961   3.18970   3.19531   3.19532   3.19769
 Alpha virt. eigenvalues --    3.19770   3.20077   3.20077   3.20110   3.21031
 Alpha virt. eigenvalues --    3.21032   3.21739   3.23348   3.23350   3.23691
 Alpha virt. eigenvalues --    3.23693   3.24609   3.24969   3.24974   3.30927
 Alpha virt. eigenvalues --    3.30929   3.33211   3.33212   3.33389   3.37870
 Alpha virt. eigenvalues --    3.38074   3.38076   3.38834   3.38836   3.41027
 Alpha virt. eigenvalues --    3.41030   3.42063   3.42201   3.42202   3.42651
 Alpha virt. eigenvalues --    3.42651   3.43108   3.43108   3.43386   3.43388
 Alpha virt. eigenvalues --    3.43564   3.43564   3.44670   3.44672   3.45074
 Alpha virt. eigenvalues --    3.45074   3.46015   3.46018   3.46888   3.47004
 Alpha virt. eigenvalues --    3.47004   3.47659   3.47660   3.48949   3.48950
 Alpha virt. eigenvalues --    3.51516   3.51521   3.51622   3.51622   3.54633
 Alpha virt. eigenvalues --    3.56547   3.56548   3.56902   3.56903   3.58366
 Alpha virt. eigenvalues --    3.59062   3.59062   3.59277   3.59277   3.61009
 Alpha virt. eigenvalues --    3.61011   3.61290   3.61291   3.62681   3.62682
 Alpha virt. eigenvalues --    3.63755   3.63756   3.64417   3.66096   3.66099
 Alpha virt. eigenvalues --    3.67046   3.67046   3.69850   3.69851   3.70585
 Alpha virt. eigenvalues --    3.70585   3.70928   3.70928   3.71105   3.71105
 Alpha virt. eigenvalues --    3.73181   3.74864   3.74864   3.75096   3.75209
 Alpha virt. eigenvalues --    3.75211   3.76081   3.76083   3.76298   3.76298
 Alpha virt. eigenvalues --    3.85523   3.85523   3.86964   3.86964   3.87274
 Alpha virt. eigenvalues --    3.87276   3.88520   3.88521   3.90493   3.94590
 Alpha virt. eigenvalues --    3.94591   3.96877   3.99136   3.99137   4.00544
 Alpha virt. eigenvalues --    4.00547   4.02070   4.02070   4.09393   4.10729
 Alpha virt. eigenvalues --    4.10733   4.12898   4.12898   4.14108   4.14109
 Alpha virt. eigenvalues --    4.15293   4.15293   4.22697   4.22698   4.24201
 Alpha virt. eigenvalues --    4.24202   4.24251   4.24251   4.26502   4.26507
 Alpha virt. eigenvalues --    4.30615   4.33934   4.40167   4.40169   4.44411
 Alpha virt. eigenvalues --    4.44413   4.47970   4.47975   4.51595   4.51595
 Alpha virt. eigenvalues --    4.55238   4.55239   4.58997   4.58997   4.70284
 Alpha virt. eigenvalues --    4.70286   4.82110   4.82111   4.84786   4.84788
 Alpha virt. eigenvalues --    4.88470   4.88471   4.89939   4.89943   4.93770
 Alpha virt. eigenvalues --    4.93809   4.93812   4.97322   4.97323   4.98824
 Alpha virt. eigenvalues --    4.98825   5.01246   5.01247   5.03654   5.04672
 Alpha virt. eigenvalues --    5.04674   5.12499  23.53533  23.61357  23.61360
 Alpha virt. eigenvalues --   23.73863  23.73864  23.84272  23.84273  23.90129
 Alpha virt. eigenvalues --   23.90130  23.93768  23.95202  23.95203  23.98209
 Alpha virt. eigenvalues --   23.98210  23.98468  23.98469  23.99890  23.99892
 Alpha virt. eigenvalues --   24.06186  24.06187  24.06733  24.06734  24.07552
 Alpha virt. eigenvalues --   24.07552  24.08395  24.09371  24.09372  24.11214
 Alpha virt. eigenvalues --   24.11215  24.13353  24.13354  24.13583  24.13825
 Alpha virt. eigenvalues --   24.13828  24.14369  24.14370  24.16272  24.16274
 Alpha virt. eigenvalues --   24.16321  24.16324  24.16361  24.16362  24.18305
 Alpha virt. eigenvalues --   24.18306  24.19994  24.23405  24.23407  24.24015
 Alpha virt. eigenvalues --   24.24017  24.24444  24.24918  24.24928  24.24983
 Alpha virt. eigenvalues --   24.24984  24.26314  24.26316  24.26762  24.27215
 Alpha virt. eigenvalues --   24.27217  24.29489  24.29494  24.30790  24.30791
 Alpha virt. eigenvalues --   24.34856  24.35438  24.35441  24.36139  24.36139
 Alpha virt. eigenvalues --   24.36697  24.36698  24.36972  24.36975
          Condensed to atoms (all electrons):
 Mulliken charges:
               1
     1  C    0.684724
     2  C    0.684569
     3  C    0.096397
     4  C   -0.303910
     5  C    0.096155
     6  C    0.096676
     7  C    0.683993
     8  C   -0.456382
     9  C   -0.665792
    10  C   -0.456399
    11  C   -0.303990
    12  C    0.096349
    13  C    0.683934
    14  C    0.096615
    15  C    0.683792
    16  C   -0.456577
    17  C   -0.664736
    18  C   -0.456642
    19  C   -0.304559
    20  C    0.096899
    21  C    0.683662
    22  C    0.096644
    23  C    0.684058
    24  C   -0.456506
    25  C   -0.664754
    26  C   -0.456677
    27  C   -0.304027
    28  C    0.096392
    29  C    0.684331
    30  C    0.096474
    31  C    0.684329
    32  C   -0.455924
    33  C   -0.666187
    34  C   -0.456483
    35  C   -0.303659
    36  C    0.096489
    37  C    0.684340
    38  C    0.096357
    39  C    0.684296
    40  C   -0.456488
    41  C   -0.666158
    42  C   -0.455942
    43  C   -0.304039
    44  C    0.096678
    45  C    0.684062
    46  C    0.096885
    47  C    0.683644
    48  C   -0.456643
    49  C   -0.664748
    50  C   -0.456542
    51  C   -0.304558
    52  C    0.096626
    53  C    0.683799
    54  C    0.096312
    55  C    0.683930
    56  C   -0.456630
    57  C   -0.664740
    58  C   -0.456580
    59  C   -0.303987
    60  C    0.096712
    61  C    0.684009
    62  C    0.096145
    63  C    0.684722
    64  C   -0.456369
    65  C   -0.665817
    66  C   -0.456400
    67  C   -0.303907
    68  C    0.096423
    69  C    0.684590
    70  C   -0.456483
    71  C   -0.665853
    72  C   -0.456482
    73  H    0.057567
    74  H    0.290294
    75  H    0.057381
    76  H    0.057368
    77  H    0.290293
    78  H    0.057551
    79  H    0.057400
    80  H    0.290315
    81  H    0.057597
    82  H    0.057597
    83  H    0.290316
    84  H    0.057392
    85  H    0.057548
    86  H    0.057370
    87  H    0.290293
    88  H    0.057387
    89  H    0.057566
    90  H    0.290294
    91  H    0.290310
    92  H    0.057378
    93  H    0.057586
    94  H    0.290301
    95  H    0.057498
    96  H    0.057495
    97  H    0.057585
    98  H    0.290311
    99  H    0.057377
   100  H   -0.084114
   101  H   -0.084115
   102  H   -0.084143
   103  H   -0.084379
   104  H   -0.084129
   105  H   -0.084123
   106  H   -0.084113
   107  H   -0.084350
   108  H   -0.084347
 Sum of Mulliken charges =  -0.00000
 Mulliken charges with hydrogens summed into heavy atoms:
               1
     1  C    0.684724
     2  C    0.684569
     3  C    0.096397
     4  C   -0.388257
     5  C    0.096155
     6  C    0.096676
     7  C    0.683993
     8  C   -0.399005
     9  C   -0.375482
    10  C   -0.398814
    11  C   -0.388105
    12  C    0.096349
    13  C    0.683934
    14  C    0.096615
    15  C    0.683792
    16  C   -0.399196
    17  C   -0.374442
    18  C   -0.399076
    19  C   -0.388673
    20  C    0.096899
    21  C    0.683662
    22  C    0.096644
    23  C    0.684058
    24  C   -0.398955
    25  C   -0.374461
    26  C   -0.399309
    27  C   -0.388169
    28  C    0.096392
    29  C    0.684331
    30  C    0.096474
    31  C    0.684329
    32  C   -0.398327
    33  C   -0.375873
    34  C   -0.399084
    35  C   -0.388038
    36  C    0.096489
    37  C    0.684340
    38  C    0.096357
    39  C    0.684296
    40  C   -0.399096
    41  C   -0.375842
    42  C   -0.398344
    43  C   -0.388168
    44  C    0.096678
    45  C    0.684062
    46  C    0.096885
    47  C    0.683644
    48  C   -0.399273
    49  C   -0.374455
    50  C   -0.398994
    51  C   -0.388681
    52  C    0.096626
    53  C    0.683799
    54  C    0.096312
    55  C    0.683930
    56  C   -0.399064
    57  C   -0.374447
    58  C   -0.399193
    59  C   -0.388101
    60  C    0.096712
    61  C    0.684009
    62  C    0.096145
    63  C    0.684722
    64  C   -0.398782
    65  C   -0.375507
    66  C   -0.399022
    67  C   -0.388257
    68  C    0.096423
    69  C    0.684590
    70  C   -0.398989
    71  C   -0.375552
    72  C   -0.398984
 Electronic spatial extent (au):  <R**2>=          78906.8947
 Charge=             -0.0000 electrons
 Dipole moment (field-independent basis, Debye):
    X=              0.0013    Y=              0.0000    Z=              0.0000  Tot=              0.0013
 Quadrupole moment (field-independent basis, Debye-Ang):
   XX=           -312.4754   YY=           -312.4853   ZZ=           -438.4188
   XY=              0.0005   XZ=              0.0000   YZ=              0.0000
 Traceless Quadrupole moment (field-independent basis, Debye-Ang):
   XX=             41.9844   YY=             41.9745   ZZ=            -83.9590
   XY=              0.0005   XZ=              0.0000   YZ=              0.0000
 Octapole moment (field-independent basis, Debye-Ang**2):
  XXX=              0.1301  YYY=             -0.0002  ZZZ=              0.0000  XYY=             -0.0324
  XXY=             -0.0009  XXZ=              0.0000  XZZ=              0.0067  YZZ=              0.0002
  YYZ=              0.0000  XYZ=              0.0000
 Hexadecapole moment (field-independent basis, Debye-Ang**3):
 XXXX=         -46880.1613 YYYY=         -46869.0729 ZZZZ=           -511.3703 XXXY=              0.0381
 XXXZ=              0.0000 YYYX=              0.0399 YYYZ=              0.0000 ZZZX=              0.0000
 ZZZY=              0.0000 XXYY=         -15624.8294 XXZZ=         -10392.0543 YYZZ=         -10389.3541
 XXYZ=              0.0000 YYXZ=              0.0000 ZZXY=              0.0147
 N-N= 9.252725725145D+03 E-N=-2.492099125292D+04  KE= 2.753427687282D+03
 Symmetry A'   KE= 2.676610844233D+03
 Symmetry A"   KE= 7.681684304817D+01
 1\1\GINC-BC11724\FOpt\RwB97XD\6-311++G(d,p)\C72H36\HPHAM196\06-Sep-202
 2\0\\# opt wb97xd/6-311++g(d,p) geom=connectivity\\Fiveseven-4.cdx\\0,
 1\C,-6.4718485645,1.5814369585,0.\C,-5.9742286319,2.9487925567,0.\C,-4
 .5375070306,2.8727118592,0.\C,-4.1762752998,1.520210851,0.\C,-5.322287
 2325,0.7162803773,0.\C,-5.3220101989,-0.7156269231,0.\C,-6.4713081018,
 -1.580999169,0.\C,-7.8175291099,-1.2476721936,0.\C,-8.4261761998,-0.00
 00980009,0.\C,-7.8179435385,1.2476751783,0.\C,-4.1756905089,-1.5192591
 812,0.\C,-4.5366378269,-2.8719039515,0.\C,-5.9733618552,-2.9481782955,
 0.\C,-3.6161026883,-3.9687310936,0.\C,-3.9404911816,-5.3704166724,0.\C
 ,-5.1859888854,-5.9803760508,0.\C,-6.4541508704,-5.4159062357,0.\C,-6.
 7901026352,-4.0690593687,0.\C,-2.2214022303,-3.8479352702,0.\C,-1.6286
 687614,-5.1162221645,0.\C,-2.6803287938,-6.0979582713,0.\C,-0.21854552
 7,-5.3650836289,0.\C,0.4336273626,-6.6475473534,0.\C,-0.1287384011,-7.
 9152916368,0.\C,-1.4631453401,-8.2977484016,0.\C,-2.5859788718,-7.4816
 170372,0.\C,0.7724959793,-4.376308205,0.\C,2.041566375,-4.9672123468,0
 .\C,1.8666913475,-6.395237868,0.\C,3.2817512404,-4.2514425858,0.\C,4.6
 058180429,-4.8143756846,0.\C,4.9897473935,-6.1470668777,0.\C,4.2132001
 494,-7.2977029899,0.\C,2.8284474093,-7.3944437125,0.\C,3.4048640112,-2
 .8569680289,0.\C,4.7567786815,-2.4935263619,0.\C,5.5411153119,-3.69968
 44066,0.\C,5.2462591406,-1.1478688596,0.\C,6.6222247956,-0.7276318811,
 0.\C,7.7732741951,-1.5012167448,0.\C,7.9185136192,-2.8817373394,0.\C,6
 .9202461325,-3.8463184731,0.\C,4.4439418782,-0.0007151475,0.\C,5.24558
 48695,1.1469992984,0.\C,6.6218070043,0.7274660994,0.\C,4.7555981756,2.
 4924719748,0.\C,5.5397831986,3.6986628143,0.\C,6.9187925998,3.84603427
 15,0.\C,7.9175317497,2.8819872403,0.\C,7.7726328218,1.5014514472,0.\C,
 3.4036593102,2.8559368357,0.\C,3.2803984508,4.2504362681,0.\C,4.604432
 4995,4.8133252375,0.\C,2.0403574415,4.9664779864,0.\C,1.865943752,6.39
 46298167,0.\C,2.8279410522,7.3936195515,0.\C,4.2126737759,7.2966871398
 ,0.\C,4.9888106703,6.1458417138,0.\C,0.7709672898,4.3761024226,0.\C,-0
 .2195487246,5.3654396155,0.\C,0.4330579165,6.6475535539,0.\C,-1.629740
 683,5.1170091691,0.\C,-2.6814166971,6.0988511786,0.\C,-2.5865145781,7.
 4824410109,0.\C,-1.4633300181,8.2981511212,0.\C,-0.1290215115,7.915436
 6792,0.\C,-2.2224138139,3.8488033599,0.\C,-3.6171121557,3.9696451996,0
 .\C,-3.9415674767,5.3713012305,0.\C,-6.7911009819,4.0695573946,0.\C,-6
 .4552635231,5.4164458996,0.\C,-5.1871844062,5.9811078458,0.\H,-7.85908
 82174,-3.8793518162,0.\H,-7.2851343254,-6.1133141038,0.\H,-5.184271632
 4,-7.0660767504,0.\H,-3.5271609288,-8.0228680614,0.\H,-1.651664063,-9.
 3661030142,0.\H,0.5700919331,-8.7461498767,0.\H,2.4554842512,-8.414086
 7388,0.\H,4.7555031112,-8.2372884341,0.\H,6.0590876395,-6.3346777406,0
 .\H,7.2907236443,-4.866824402,0.\H,8.9380103231,-3.2526008659,0.\H,8.7
 126403307,-0.9568189085,0.\H,8.7122248162,0.9575216735,0.\H,7.28838382
 58,4.8669034539,0.\H,8.9369105189,3.2531851385,0.\H,6.0583066928,6.332
 717199,0.\H,2.4554671438,8.4134135025,0.\H,4.7551569519,8.2361678212,0
 .\H,-1.6516097566,9.3665426272,0.\H,0.5701183749,8.746084288,0.\H,-3.5
 273340445,8.0242474025,0.\H,-7.2863252902,6.1137580348,0.\H,-5.1857654
 435,7.0668019784,0.\H,-7.8600496036,3.8795970247,0.\H,-8.5149074246,2.
 0801043154,0.\H,-9.5110308816,-0.0002459721,0.\H,-8.5141286156,-2.0804
 534861,0.\H,-3.161583341,-1.149790424,0.\H,-1.681707976,-2.9132343734,
 0.\H,0.5855052146,-3.3133021569,0.\H,2.5780465414,-2.1631998378,0.\H,3
 .3646152236,-0.0011808824,0.\H,2.5768766295,2.162131852,0.\H,0.5832367
 567,3.3132395213,0.\H,-1.6825608034,2.9141838785,0.\H,-3.1621033635,1.
 1508733894,0.\\Version=ES64L-G16RevA.03\State=1-A'\HF=-2764.8461723\RM
 SD=4.966e-09\RMSF=2.434e-05\Dipole=-0.0003977,0.0003265,0.\Quadrupole=
 31.2117039,31.2097317,-62.4214355,-0.0035621,0.,0.\PG=CS [SG(C72H36)]\
 \@


 "ANNA, YOU MUSN'T SPEAK OF OXIDIZED MURIATIC ACID
 ANYMORE, FROM NOW ON YOU MUST SAY CHLORINE."
   -- JENS JACOB BERZELIUS, IN 1820, TO HIS COOK, WHO HAD
 COMPLAINED OF THE SMELL OF THE FLASK SHE WAS CLEANING.
 Job cpu time:       3 days 11 hours  5 minutes 35.0 seconds.
 Elapsed time:       0 days  3 hours 48 minutes 41.2 seconds.
 File lengths (MBytes):  RWF=   1994 Int=      0 D2E=      0 Chk=    225 Scr=      1
 Normal termination of Gaussian 16 at Tue Sep  6 03:21:29 2022.
