 Entering Gaussian System, Link 0=g16
 Initial command:
 /project/6004141/group/g16/g16/l1.exe "/scratch/hpham196/GaussianScratch/Gau-138764.inp" -scrdir="/scratch/hpham196/GaussianScratch/"
 Entering Link 1 = /project/6004141/group/g16/g16/l1.exe PID=    138848.
  
 Copyright (c) 1988,1990,1992,1993,1995,1998,2003,2009,2016,
            Gaussian, Inc.  All Rights Reserved.
  
 This is part of the Gaussian(R) 16 program.  It is based on
 the Gaussian(R) 09 system (copyright 2009, Gaussian, Inc.),
 the Gaussian(R) 03 system (copyright 2003, Gaussian, Inc.),
 the Gaussian(R) 98 system (copyright 1998, Gaussian, Inc.),
 the Gaussian(R) 94 system (copyright 1995, Gaussian, Inc.),
 the Gaussian 92(TM) system (copyright 1992, Gaussian, Inc.),
 the Gaussian 90(TM) system (copyright 1990, Gaussian, Inc.),
 the Gaussian 88(TM) system (copyright 1988, Gaussian, Inc.),
 the Gaussian 86(TM) system (copyright 1986, Carnegie Mellon
 University), and the Gaussian 82(TM) system (copyright 1983,
 Carnegie Mellon University). Gaussian is a federally registered
 trademark of Gaussian, Inc.
  
 This software contains proprietary and confidential information,
 including trade secrets, belonging to Gaussian, Inc.
  
 This software is provided under written license and may be
 used, copied, transmitted, or stored only in accord with that
 written license.
  
 The following legend is applicable only to US Government
 contracts under FAR:
  
                    RESTRICTED RIGHTS LEGEND
  
 Use, reproduction and disclosure by the US Government is
 subject to restrictions as set forth in subparagraphs (a)
 and (c) of the Commercial Computer Software - Restricted
 Rights clause in FAR 52.227-19.
  
 Gaussian, Inc.
 340 Quinnipiac St., Bldg. 40, Wallingford CT 06492
  
  
 ---------------------------------------------------------------
 Warning -- This program may not be used in any manner that
 competes with the business of Gaussian, Inc. or will provide
 assistance to any competitor of Gaussian, Inc.  The licensee
 of this program is prohibited from giving any competitor of
 Gaussian, Inc. access to this program.  By using this program,
 the user acknowledges that Gaussian, Inc. is engaged in the
 business of creating and licensing software in the field of
 computational chemistry and represents and warrants to the
 licensee that it is not a competitor of Gaussian, Inc. and that
 it will not use this program in any manner prohibited above.
 ---------------------------------------------------------------
  

 Cite this work as:
 Gaussian 16, Revision A.03,
 M. J. Frisch, G. W. Trucks, H. B. Schlegel, G. E. Scuseria, 
 M. A. Robb, J. R. Cheeseman, G. Scalmani, V. Barone, 
 G. A. Petersson, H. Nakatsuji, X. Li, M. Caricato, A. V. Marenich, 
 J. Bloino, B. G. Janesko, R. Gomperts, B. Mennucci, H. P. Hratchian, 
 J. V. Ortiz, A. F. Izmaylov, J. L. Sonnenberg, D. Williams-Young, 
 F. Ding, F. Lipparini, F. Egidi, J. Goings, B. Peng, A. Petrone, 
 T. Henderson, D. Ranasinghe, V. G. Zakrzewski, J. Gao, N. Rega, 
 G. Zheng, W. Liang, M. Hada, M. Ehara, K. Toyota, R. Fukuda, 
 J. Hasegawa, M. Ishida, T. Nakajima, Y. Honda, O. Kitao, H. Nakai, 
 T. Vreven, K. Throssell, J. A. Montgomery, Jr., J. E. Peralta, 
 F. Ogliaro, M. J. Bearpark, J. J. Heyd, E. N. Brothers, K. N. Kudin, 
 V. N. Staroverov, T. A. Keith, R. Kobayashi, J. Normand, 
 K. Raghavachari, A. P. Rendell, J. C. Burant, S. S. Iyengar, 
 J. Tomasi, M. Cossi, J. M. Millam, M. Klene, C. Adamo, R. Cammi, 
 J. W. Ochterski, R. L. Martin, K. Morokuma, O. Farkas, 
 J. B. Foresman, and D. J. Fox, Gaussian, Inc., Wallingford CT, 2016.
 
 ******************************************
 Gaussian 16:  ES64L-G16RevA.03 25-Dec-2016
                19-Aug-2022 
 ******************************************
 %NProcShared=40
 Will use up to   40 processors via shared memory.
 %chk=Azulene.chk
 -------------------------------------------------
 # opt freq wb97xd/6-311++g(d,p) geom=connectivity
 -------------------------------------------------
 1/18=20,19=15,26=3,38=1,57=2/1,3;
 2/9=110,12=2,17=6,18=5,40=1/2;
 3/5=4,6=6,7=1111,11=2,25=1,30=1,71=1,74=-58/1,2,3;
 4//1;
 5/5=2,38=5/2;
 6/7=2,8=2,9=2,10=2,28=1/1;
 7//1,2,3,16;
 1/18=20,19=15,26=3/3(2);
 2/9=110/2;
 99//99;
 2/9=110/2;
 3/5=4,6=6,7=1111,11=2,25=1,30=1,71=1,74=-58/1,2,3;
 4/5=5,16=3,69=1/1;
 5/5=2,38=5/2;
 7//1,2,3,16;
 1/18=20,19=15,26=3/3(-5);
 2/9=110/2;
 6/7=2,8=2,9=2,10=2,19=2,28=1/1;
 99/9=1/99;
 ---------------
 Fiveseven-3.cdx
 ---------------
 Symbolic Z-matrix:
 Charge =  0 Multiplicity = 1
 C                     0.72744   3.7938    0. 
 C                    -0.72747   3.79382   0. 
 C                    -1.15963   5.18747   0. 
 C                    -0.00002   5.99472   0. 
 C                     1.15959   5.18754   0. 
 C                     1.52796   2.6466    0. 
 C                     2.92172   2.52687   0. 
 C                     3.91258   3.59795   0. 
 C                     2.48998   5.69611   0. 
 C                     3.68794   5.00437   0. 
 H                     4.59864   5.61684   0. 
 H                     2.56519   6.79102   0. 
 H                    -0.00003   7.08758   0. 
 H                    -2.17155   5.5352    0. 
 H                    -1.36222   2.93243   0. 
 H                     0.99294   1.71996   0. 
 H                     3.30795   1.52901   0. 
 H                     4.93664   3.28781   0. 
 

 GradGradGradGradGradGradGradGradGradGradGradGradGradGradGradGradGradGrad
 Berny optimization.
 Initialization pass.
                           ----------------------------
                           !    Initial Parameters    !
                           ! (Angstroms and Degrees)  !
 --------------------------                            --------------------------
 ! Name  Definition              Value          Derivative Info.                !
 --------------------------------------------------------------------------------
 ! R1    R(1,2)                  1.4549         estimate D2E/DX2                !
 ! R2    R(1,5)                  1.4592         estimate D2E/DX2                !
 ! R3    R(1,6)                  1.3989         estimate D2E/DX2                !
 ! R4    R(2,3)                  1.4591         estimate D2E/DX2                !
 ! R5    R(2,15)                 1.07           estimate D2E/DX2                !
 ! R6    R(3,4)                  1.4129         estimate D2E/DX2                !
 ! R7    R(3,14)                 1.07           estimate D2E/DX2                !
 ! R8    R(4,5)                  1.4129         estimate D2E/DX2                !
 ! R9    R(4,13)                 1.0929         estimate D2E/DX2                !
 ! R10   R(5,9)                  1.4243         estimate D2E/DX2                !
 ! R11   R(6,7)                  1.3989         estimate D2E/DX2                !
 ! R12   R(6,16)                 1.07           estimate D2E/DX2                !
 ! R13   R(7,8)                  1.4591         estimate D2E/DX2                !
 ! R14   R(7,17)                 1.07           estimate D2E/DX2                !
 ! R15   R(8,10)                 1.4243         estimate D2E/DX2                !
 ! R16   R(8,18)                 1.07           estimate D2E/DX2                !
 ! R17   R(9,10)                 1.3833         estimate D2E/DX2                !
 ! R18   R(9,12)                 1.0975         estimate D2E/DX2                !
 ! R19   R(10,11)                1.0975         estimate D2E/DX2                !
 ! A1    A(2,1,5)              107.2257         estimate D2E/DX2                !
 ! A2    A(2,1,6)              124.9082         estimate D2E/DX2                !
 ! A3    A(5,1,6)              127.8661         estimate D2E/DX2                !
 ! A4    A(1,2,3)              107.2291         estimate D2E/DX2                !
 ! A5    A(1,2,15)             126.3855         estimate D2E/DX2                !
 ! A6    A(3,2,15)             126.3855         estimate D2E/DX2                !
 ! A7    A(2,3,4)              107.6149         estimate D2E/DX2                !
 ! A8    A(2,3,14)             126.1926         estimate D2E/DX2                !
 ! A9    A(4,3,14)             126.1926         estimate D2E/DX2                !
 ! A10   A(3,4,5)              110.3158         estimate D2E/DX2                !
 ! A11   A(3,4,13)             124.8426         estimate D2E/DX2                !
 ! A12   A(5,4,13)             124.8415         estimate D2E/DX2                !
 ! A13   A(1,5,4)              107.6145         estimate D2E/DX2                !
 ! A14   A(1,5,9)              128.1471         estimate D2E/DX2                !
 ! A15   A(4,5,9)              124.2384         estimate D2E/DX2                !
 ! A16   A(1,6,7)              129.817          estimate D2E/DX2                !
 ! A17   A(1,6,16)             115.0915         estimate D2E/DX2                !
 ! A18   A(7,6,16)             115.0915         estimate D2E/DX2                !
 ! A19   A(6,7,8)              127.8622         estimate D2E/DX2                !
 ! A20   A(6,7,17)             116.0689         estimate D2E/DX2                !
 ! A21   A(8,7,17)             116.0689         estimate D2E/DX2                !
 ! A22   A(7,8,10)             128.1535         estimate D2E/DX2                !
 ! A23   A(7,8,18)             115.9233         estimate D2E/DX2                !
 ! A24   A(10,8,18)            115.9233         estimate D2E/DX2                !
 ! A25   A(5,9,10)             129.0765         estimate D2E/DX2                !
 ! A26   A(5,9,12)             114.8503         estimate D2E/DX2                !
 ! A27   A(10,9,12)            116.0732         estimate D2E/DX2                !
 ! A28   A(8,10,9)             129.0777         estimate D2E/DX2                !
 ! A29   A(8,10,11)            114.8471         estimate D2E/DX2                !
 ! A30   A(9,10,11)            116.0752         estimate D2E/DX2                !
 ! D1    D(5,1,2,3)              0.0            estimate D2E/DX2                !
 ! D2    D(5,1,2,15)           180.0            estimate D2E/DX2                !
 ! D3    D(6,1,2,3)            180.0            estimate D2E/DX2                !
 ! D4    D(6,1,2,15)             0.0            estimate D2E/DX2                !
 ! D5    D(2,1,5,4)              0.0            estimate D2E/DX2                !
 ! D6    D(2,1,5,9)            180.0            estimate D2E/DX2                !
 ! D7    D(6,1,5,4)            180.0            estimate D2E/DX2                !
 ! D8    D(6,1,5,9)              0.0            estimate D2E/DX2                !
 ! D9    D(2,1,6,7)            180.0            estimate D2E/DX2                !
 ! D10   D(2,1,6,16)             0.0            estimate D2E/DX2                !
 ! D11   D(5,1,6,7)              0.0            estimate D2E/DX2                !
 ! D12   D(5,1,6,16)           180.0            estimate D2E/DX2                !
 ! D13   D(1,2,3,4)              0.0            estimate D2E/DX2                !
 ! D14   D(1,2,3,14)           180.0            estimate D2E/DX2                !
 ! D15   D(15,2,3,4)           180.0            estimate D2E/DX2                !
 ! D16   D(15,2,3,14)            0.0            estimate D2E/DX2                !
 ! D17   D(2,3,4,5)              0.0            estimate D2E/DX2                !
 ! D18   D(2,3,4,13)           180.0            estimate D2E/DX2                !
 ! D19   D(14,3,4,5)           180.0            estimate D2E/DX2                !
 ! D20   D(14,3,4,13)            0.0            estimate D2E/DX2                !
 ! D21   D(3,4,5,1)              0.0            estimate D2E/DX2                !
 ! D22   D(3,4,5,9)            180.0            estimate D2E/DX2                !
 ! D23   D(13,4,5,1)           180.0            estimate D2E/DX2                !
 ! D24   D(13,4,5,9)             0.0            estimate D2E/DX2                !
 ! D25   D(1,5,9,10)             0.0            estimate D2E/DX2                !
 ! D26   D(1,5,9,12)           180.0            estimate D2E/DX2                !
 ! D27   D(4,5,9,10)           180.0            estimate D2E/DX2                !
 ! D28   D(4,5,9,12)             0.0            estimate D2E/DX2                !
 ! D29   D(1,6,7,8)              0.0            estimate D2E/DX2                !
 ! D30   D(1,6,7,17)           180.0            estimate D2E/DX2                !
 ! D31   D(16,6,7,8)           180.0            estimate D2E/DX2                !
 ! D32   D(16,6,7,17)            0.0            estimate D2E/DX2                !
 ! D33   D(6,7,8,10)             0.0            estimate D2E/DX2                !
 ! D34   D(6,7,8,18)           180.0            estimate D2E/DX2                !
 ! D35   D(17,7,8,10)          180.0            estimate D2E/DX2                !
 ! D36   D(17,7,8,18)            0.0            estimate D2E/DX2                !
 ! D37   D(7,8,10,9)             0.0            estimate D2E/DX2                !
 ! D38   D(7,8,10,11)          180.0            estimate D2E/DX2                !
 ! D39   D(18,8,10,9)          180.0            estimate D2E/DX2                !
 ! D40   D(18,8,10,11)           0.0            estimate D2E/DX2                !
 ! D41   D(5,9,10,8)             0.0            estimate D2E/DX2                !
 ! D42   D(5,9,10,11)          180.0            estimate D2E/DX2                !
 ! D43   D(12,9,10,8)          180.0            estimate D2E/DX2                !
 ! D44   D(12,9,10,11)           0.0            estimate D2E/DX2                !
 --------------------------------------------------------------------------------
 Trust Radius=3.00D-01 FncErr=1.00D-07 GrdErr=1.00D-06 EigMax=2.50D+02 EigMin=1.00D-04
 Number of steps in this run=    103 maximum allowed number of steps=    108.
 GradGradGradGradGradGradGradGradGradGradGradGradGradGradGradGradGradGrad

                          Input orientation:                          
 ---------------------------------------------------------------------
 Center     Atomic      Atomic             Coordinates (Angstroms)
 Number     Number       Type             X           Y           Z
 ---------------------------------------------------------------------
      1          6           0        0.727444    3.793795    0.000000
      2          6           0       -0.727468    3.793818    0.000000
      3          6           0       -1.159628    5.187474    0.000000
      4          6           0       -0.000018    5.994717    0.000000
      5          6           0        1.159588    5.187535    0.000000
      6          6           0        1.527957    2.646596    0.000000
      7          6           0        2.921721    2.526870    0.000000
      8          6           0        3.912575    3.597948    0.000000
      9          6           0        2.489975    5.696105    0.000000
     10          6           0        3.687941    5.004374    0.000000
     11          1           0        4.598644    5.616843    0.000000
     12          1           0        2.565192    6.791016    0.000000
     13          1           0       -0.000026    7.087585    0.000000
     14          1           0       -2.171549    5.535203    0.000000
     15          1           0       -1.362221    2.932431    0.000000
     16          1           0        0.992937    1.719960    0.000000
     17          1           0        3.307949    1.529008    0.000000
     18          1           0        4.936644    3.287814    0.000000
 ---------------------------------------------------------------------
                    Distance matrix (angstroms):
                    1          2          3          4          5
     1  C    0.000000
     2  C    1.454912   0.000000
     3  C    2.345929   1.459123   0.000000
     4  C    2.318029   2.318003   1.412918   0.000000
     5  C    1.459198   2.345938   2.319216   1.412880   0.000000
     6  C    1.398888   2.530427   3.698537   3.680302   2.567502
     7  C    2.533762   3.862866   4.871984   4.534592   3.191277
     8  C    3.191146   4.644175   5.315434   4.588342   3.178950
     9  C    2.593318   3.737731   3.684876   2.507835   1.424280
    10  C    3.198444   4.578349   4.851026   3.818615   2.534979
    11  H    4.278983   5.629466   5.774258   4.614161   3.465748
    12  H    3.515772   4.452506   4.055321   2.685962   2.132340
    13  H    3.373168   3.373140   2.226005   1.092868   2.225959
    14  H    3.381814   2.262254   1.070000   2.219617   3.349231
    15  H    2.260232   1.070000   2.264126   3.351596   3.383049
    16  H    2.090760   2.694565   4.081322   4.388565   3.471577
    17  H    3.433404   4.627521   5.774393   5.557445   4.242673
    18  H    4.239502   5.686669   6.385393   5.630093   4.227894
                    6          7          8          9         10
     6  C    0.000000
     7  C    1.398897   0.000000
     8  C    2.567387   1.459109   0.000000
     9  C    3.197653   3.198508   2.534966   0.000000
    10  C    3.197600   2.593283   1.424252   1.383334   0.000000
    11  H    4.272176   3.515680   2.132282   2.110158   1.097496
    12  H    4.272245   4.279025   3.465707   1.097492   2.110132
    13  H    4.696500   5.416339   5.242710   2.852424   4.235666
    14  H    4.693655   5.915359   6.385102   4.664300   5.883486
    15  H    2.904278   4.303097   5.316614   4.741024   5.458671
    16  H    1.070000   2.090768   3.471473   4.248629   4.248579
    17  H    2.101755   1.070000   2.155478   4.246619   3.496078
    18  H    3.468473   2.153822   1.070000   3.433082   2.122695
                   11         12         13         14         15
    11  H    0.000000
    12  H    2.348108   0.000000
    13  H    4.828131   2.582305   0.000000
    14  H    6.770685   4.900386   2.669345   0.000000
    15  H    6.537429   5.505748   4.372743   2.725699   0.000000
    16  H    5.309126   5.309199   5.458697   4.956818   2.648934
    17  H    4.286757   5.314171   6.468421   6.787819   4.876482
    18  H    2.353427   4.230391   6.229684   7.455009   6.308883
                   16         17         18
    16  H    0.000000
    17  H    2.322873   0.000000
    18  H    4.243936   2.397092   0.000000
 Stoichiometry    C10H8
 Framework group  CS[SG(C10H8)]
 Deg. of freedom    33
 Full point group                 CS      NOp   2
 Largest Abelian subgroup         CS      NOp   2
 Largest concise Abelian subgroup C1      NOp   1
                         Standard orientation:                         
 ---------------------------------------------------------------------
 Center     Atomic      Atomic             Coordinates (Angstroms)
 Number     Number       Type             X           Y           Z
 ---------------------------------------------------------------------
      1          6           0       -0.887440   -0.254362    0.000000
      2          6           0       -2.252588    0.248769    0.000000
      3          6           0       -2.176160    1.705889    0.000000
      4          6           0       -0.808944    2.062338    0.000000
      5          6           0        0.000000    0.903960    0.000000
      6          6           0       -0.533014   -1.607606    0.000000
      7          6           0        0.733364   -2.201910    0.000000
      8          6           0        2.033470   -1.539546    0.000000
      9          6           0        1.424177    0.921107    0.000000
     10          6           0        2.309037   -0.142207    0.000000
     11          1           0        3.375349    0.117556    0.000000
     12          1           0        1.873374    1.922461    0.000000
     13          1           0       -0.431037    3.087787    0.000000
     14          1           0       -3.005409    2.382088    0.000000
     15          1           0       -3.146050   -0.339980    0.000000
     16          1           0       -1.355459   -2.292065    0.000000
     17          1           0        0.750704   -3.271769    0.000000
     18          1           0        2.887118   -2.184671    0.000000
 ---------------------------------------------------------------------
 Rotational constants (GHZ):           2.8104258           1.2221503           0.8517540
 Standard basis: 6-311++G(d,p) (5D, 7F)
 There are   218 symmetry adapted cartesian basis functions of A'  symmetry.
 There are    68 symmetry adapted cartesian basis functions of A"  symmetry.
 There are   208 symmetry adapted basis functions of A'  symmetry.
 There are    68 symmetry adapted basis functions of A"  symmetry.
   276 basis functions,   432 primitive gaussians,   286 cartesian basis functions
    34 alpha electrons       34 beta electrons
       nuclear repulsion energy       449.2537050650 Hartrees.
 NAtoms=   18 NActive=   18 NUniq=   18 SFac= 1.00D+00 NAtFMM=   60 NAOKFM=F Big=F
 Integral buffers will be    131072 words long.
 Raffenetti 2 integral format.
 Two-electron integral symmetry is turned on.
 Nuclear repulsion after empirical dispersion term =      449.2442836058 Hartrees.
 One-electron integrals computed using PRISM.
 PrsmSu:  requested number of processors reduced to:  29 ShMem   1 Linda.
 NBasis=   276 RedAO= T EigKep=  1.20D-06  NBF=   208    68
 NBsUse=   274 1.00D-06 EigRej=  7.73D-07 NBFU=   206    68
 ExpMin= 3.60D-02 ExpMax= 4.56D+03 ExpMxC= 6.82D+02 IAcc=3 IRadAn=         5 AccDes= 0.00D+00
 Harris functional with IExCor= 4639 and IRadAn=       5 diagonalized for initial guess.
 HarFok:  IExCor= 4639 AccDes= 0.00D+00 IRadAn=         5 IDoV= 1 UseB2=F ITyADJ=14
 ICtDFT=  3500011 ScaDFX=  1.000000  1.000000  1.000000  1.000000
 FoFCou: FMM=F IPFlag=           0 FMFlag=      100000 FMFlg1=           0
         NFxFlg=           0 DoJE=T BraDBF=F KetDBF=T FulRan=T
         wScrn=  0.000000 ICntrl=       500 IOpCl=  0 I1Cent=   200000004 NGrid=           0
         NMat0=    1 NMatS0=      1 NMatT0=    0 NMatD0=    1 NMtDS0=    0 NMtDT0=    0
 Petite list used in FoFCou.
 Initial guess orbital symmetries:
       Occupied  (A') (A') (A') (A') (A') (A') (A') (A') (A') (A')
                 (A') (A') (A') (A') (A') (A') (A') (A') (A') (A')
                 (A') (A') (A') (A') (A') (A") (A') (A') (A') (A')
                 (A") (A") (A") (A")
       Virtual   (A") (A") (A') (A') (A') (A') (A') (A") (A') (A')
                 (A") (A') (A') (A") (A") (A") (A') (A') (A') (A')
                 (A") (A') (A') (A") (A') (A') (A') (A') (A") (A")
                 (A') (A") (A') (A") (A') (A') (A') (A') (A") (A')
                 (A") (A') (A') (A') (A') (A') (A') (A') (A') (A')
                 (A') (A') (A') (A') (A') (A') (A') (A') (A') (A')
                 (A') (A') (A') (A') (A') (A') (A') (A') (A') (A')
                 (A') (A") (A') (A") (A') (A') (A") (A') (A') (A")
                 (A") (A') (A') (A') (A") (A") (A") (A") (A') (A")
                 (A') (A') (A') (A') (A') (A') (A') (A') (A') (A')
                 (A') (A') (A') (A') (A') (A') (A') (A') (A") (A')
                 (A') (A') (A") (A') (A") (A") (A") (A') (A") (A')
                 (A") (A") (A') (A") (A') (A') (A') (A') (A') (A')
                 (A") (A') (A') (A") (A') (A") (A') (A') (A") (A")
                 (A') (A') (A') (A") (A') (A') (A") (A') (A") (A")
                 (A") (A') (A') (A") (A') (A') (A') (A") (A') (A')
                 (A') (A') (A") (A") (A') (A') (A") (A') (A') (A')
                 (A") (A') (A") (A") (A') (A') (A") (A') (A') (A')
                 (A') (A') (A') (A") (A') (A') (A') (A") (A') (A')
                 (A') (A') (A') (A") (A') (A') (A') (A") (A") (A')
                 (A') (A") (A") (A") (A") (A") (A') (A') (A') (A')
                 (A') (A') (A') (A') (A') (A') (A') (A') (A') (A')
                 (A') (A') (A') (A') (A') (A') (A') (A') (A') (A')
                 (A') (A') (A') (A') (A') (A') (A') (A') (A') (A')
 The electronic state of the initial guess is 1-A'.
 Requested convergence on RMS density matrix=1.00D-08 within 128 cycles.
 Requested convergence on MAX density matrix=1.00D-06.
 Requested convergence on             energy=1.00D-06.
 No special actions if energy rises.
 SCF Done:  E(RwB97XD) =  -385.770689069     A.U. after   17 cycles
            NFock= 17  Conv=0.70D-08     -V/T= 2.0057

 **********************************************************************

            Population analysis using the SCF density.

 **********************************************************************

 Orbital symmetries:
       Occupied  (A') (A') (A') (A') (A') (A') (A') (A') (A') (A')
                 (A') (A') (A') (A') (A') (A') (A') (A') (A') (A')
                 (A') (A') (A') (A') (A') (A") (A') (A') (A') (A')
                 (A") (A") (A") (A")
       Virtual   (A") (A") (A') (A') (A') (A') (A') (A') (A') (A")
                 (A') (A') (A") (A") (A") (A') (A') (A') (A') (A")
                 (A") (A') (A') (A') (A") (A') (A') (A') (A") (A')
                 (A") (A') (A') (A") (A') (A') (A") (A') (A") (A')
                 (A') (A") (A') (A') (A') (A') (A') (A') (A') (A')
                 (A') (A') (A') (A') (A') (A') (A') (A') (A') (A')
                 (A') (A') (A') (A') (A') (A') (A') (A') (A') (A')
                 (A") (A') (A') (A') (A") (A") (A') (A') (A') (A")
                 (A") (A') (A') (A') (A") (A") (A") (A") (A') (A")
                 (A') (A') (A') (A') (A') (A') (A') (A') (A') (A')
                 (A') (A') (A') (A') (A') (A') (A') (A') (A') (A')
                 (A") (A') (A") (A') (A") (A") (A') (A") (A') (A")
                 (A") (A') (A") (A") (A') (A') (A') (A') (A') (A')
                 (A") (A') (A") (A') (A") (A') (A') (A') (A") (A")
                 (A') (A') (A') (A") (A') (A') (A') (A") (A") (A")
                 (A") (A') (A') (A") (A') (A') (A') (A") (A') (A')
                 (A') (A') (A") (A") (A') (A') (A") (A') (A') (A")
                 (A') (A') (A") (A") (A') (A') (A") (A') (A') (A')
                 (A') (A') (A') (A') (A') (A") (A') (A') (A') (A')
                 (A") (A') (A') (A') (A') (A') (A") (A') (A") (A')
                 (A") (A") (A") (A") (A") (A") (A') (A') (A') (A')
                 (A') (A') (A') (A') (A') (A') (A') (A') (A') (A')
                 (A') (A') (A') (A') (A') (A') (A') (A') (A') (A')
                 (A') (A') (A') (A') (A') (A') (A') (A') (A') (A')
 The electronic state is 1-A'.
 Alpha  occ. eigenvalues --  -10.32637 -10.32248 -10.31796 -10.30954 -10.30813
 Alpha  occ. eigenvalues --  -10.30535 -10.30378 -10.29180 -10.28117 -10.27550
 Alpha  occ. eigenvalues --   -0.97513  -0.92318  -0.89366  -0.83682  -0.79975
 Alpha  occ. eigenvalues --   -0.75377  -0.71180  -0.64929  -0.64546  -0.60581
 Alpha  occ. eigenvalues --   -0.59057  -0.54876  -0.54564  -0.49242  -0.48958
 Alpha  occ. eigenvalues --   -0.47986  -0.46823  -0.45317  -0.44132  -0.42458
 Alpha  occ. eigenvalues --   -0.41597  -0.38754  -0.30515  -0.26475
 Alpha virt. eigenvalues --   -0.02973   0.01111   0.03723   0.04631   0.04951
 Alpha virt. eigenvalues --    0.06167   0.06380   0.08200   0.08745   0.10527
 Alpha virt. eigenvalues --    0.10696   0.12018   0.12532   0.12672   0.13556
 Alpha virt. eigenvalues --    0.14602   0.15115   0.15547   0.15610   0.16166
 Alpha virt. eigenvalues --    0.16355   0.16844   0.16969   0.17667   0.17883
 Alpha virt. eigenvalues --    0.17970   0.18038   0.19008   0.20356   0.20891
 Alpha virt. eigenvalues --    0.21352   0.21646   0.22577   0.22965   0.23164
 Alpha virt. eigenvalues --    0.23463   0.23580   0.24683   0.25610   0.25651
 Alpha virt. eigenvalues --    0.26539   0.26750   0.28836   0.29012   0.29423
 Alpha virt. eigenvalues --    0.30010   0.30816   0.31070   0.31720   0.32386
 Alpha virt. eigenvalues --    0.32654   0.33221   0.34537   0.34805   0.35619
 Alpha virt. eigenvalues --    0.36326   0.36444   0.36973   0.37904   0.39115
 Alpha virt. eigenvalues --    0.39941   0.40434   0.40873   0.45552   0.47294
 Alpha virt. eigenvalues --    0.49361   0.50493   0.52807   0.54853   0.58038
 Alpha virt. eigenvalues --    0.59294   0.60259   0.62070   0.63493   0.63869
 Alpha virt. eigenvalues --    0.64411   0.64673   0.65764   0.66028   0.66397
 Alpha virt. eigenvalues --    0.67077   0.67428   0.68241   0.69989   0.70334
 Alpha virt. eigenvalues --    0.71275   0.72656   0.75723   0.79117   0.79117
 Alpha virt. eigenvalues --    0.80506   0.80858   0.82483   0.83168   0.83601
 Alpha virt. eigenvalues --    0.85151   0.86041   0.87066   0.89815   0.90781
 Alpha virt. eigenvalues --    0.93543   0.94092   0.95328   0.95363   0.96998
 Alpha virt. eigenvalues --    0.99253   0.99968   1.00465   1.00715   1.01711
 Alpha virt. eigenvalues --    1.02006   1.06211   1.07099   1.08444   1.10210
 Alpha virt. eigenvalues --    1.11455   1.12035   1.12115   1.15211   1.18064
 Alpha virt. eigenvalues --    1.18729   1.21163   1.21511   1.22577   1.24996
 Alpha virt. eigenvalues --    1.27467   1.30451   1.42761   1.51916   1.53147
 Alpha virt. eigenvalues --    1.55307   1.58732   1.59041   1.60883   1.61978
 Alpha virt. eigenvalues --    1.62109   1.63484   1.65550   1.66869   1.68387
 Alpha virt. eigenvalues --    1.69564   1.73157   1.75647   1.77468   1.78520
 Alpha virt. eigenvalues --    1.79877   1.81050   1.81763   1.82627   1.87863
 Alpha virt. eigenvalues --    1.88385   1.89390   1.91943   1.95668   1.97168
 Alpha virt. eigenvalues --    1.99530   2.00208   2.01149   2.02068   2.03634
 Alpha virt. eigenvalues --    2.04609   2.04989   2.08039   2.09323   2.09964
 Alpha virt. eigenvalues --    2.10362   2.16883   2.20816   2.21086   2.27693
 Alpha virt. eigenvalues --    2.29215   2.32259   2.34378   2.36481   2.48331
 Alpha virt. eigenvalues --    2.50655   2.51397   2.52324   2.56735   2.59016
 Alpha virt. eigenvalues --    2.59899   2.61143   2.69452   2.71489   2.72117
 Alpha virt. eigenvalues --    2.72792   2.76476   2.77738   2.78801   2.79448
 Alpha virt. eigenvalues --    2.80734   2.81106   2.82239   2.83659   2.85510
 Alpha virt. eigenvalues --    2.87250   2.87936   2.90446   2.91266   2.91823
 Alpha virt. eigenvalues --    2.92369   2.97921   3.03507   3.06781   3.11134
 Alpha virt. eigenvalues --    3.12305   3.14495   3.22713   3.24920   3.29494
 Alpha virt. eigenvalues --    3.32974   3.33480   3.36076   3.43684   3.50161
 Alpha virt. eigenvalues --    3.52866   3.55605   3.57230   3.60248   3.71233
 Alpha virt. eigenvalues --    3.80829   4.07260   4.10198   4.17019   4.18873
 Alpha virt. eigenvalues --    4.21747   4.33108   4.48002   4.76023   4.92346
 Alpha virt. eigenvalues --   23.67756  23.93686  23.95286  24.06590  24.06983
 Alpha virt. eigenvalues --   24.09723  24.12758  24.22287  24.25054  24.27426
          Condensed to atoms (all electrons):
               1          2          3          4          5          6
     1  C   13.532305  -2.161868   1.344139  -2.325600  -2.010225  -2.198529
     2  C   -2.161868  10.639719  -1.717134   1.442186  -2.300037  -0.201684
     3  C    1.344139  -1.717134   6.960978  -1.870924   1.404737   0.419285
     4  C   -2.325600   1.442186  -1.870924  11.269734  -2.432527  -1.775700
     5  C   -2.010225  -2.300037   1.404737  -2.432527  13.682493   2.722454
     6  C   -2.198529  -0.201684   0.419285  -1.775700   2.722454   9.635428
     7  C   -0.463227   1.299963  -0.368291   0.100860  -2.447072  -1.786953
     8  C    0.137522  -0.265678   0.179722  -0.182046   0.232965   0.130536
     9  C    2.511310  -1.119921   0.071791   0.152514  -2.269841  -1.106719
    10  C   -2.431244   0.194328  -0.470195   1.388741  -0.645409  -0.009771
    11  H   -0.043292   0.010801  -0.009153   0.019575  -0.016053  -0.008307
    12  H    0.043378  -0.039012   0.051924  -0.028983   0.038102   0.005026
    13  H   -0.018226  -0.021738  -0.012072   0.443847  -0.107475  -0.031638
    14  H   -0.034738   0.037587   0.302216   0.032643  -0.016435   0.004710
    15  H   -0.084616   0.421644  -0.000094  -0.037445  -0.023134   0.060114
    16  H    0.049522  -0.042156   0.047922  -0.036924   0.055157   0.456849
    17  H   -0.002908   0.024770  -0.010382   0.011311  -0.051715  -0.180283
    18  H    0.034559  -0.007724   0.003514  -0.006924   0.034942  -0.011184
               7          8          9         10         11         12
     1  C   -0.463227   0.137522   2.511310  -2.431244  -0.043292   0.043378
     2  C    1.299963  -0.265678  -1.119921   0.194328   0.010801  -0.039012
     3  C   -0.368291   0.179722   0.071791  -0.470195  -0.009153   0.051924
     4  C    0.100860  -0.182046   0.152514   1.388741   0.019575  -0.028983
     5  C   -2.447072   0.232965  -2.269841  -0.645409  -0.016053   0.038102
     6  C   -1.786953   0.130536  -1.106719  -0.009771  -0.008307   0.005026
     7  C    9.163864  -0.280052   0.232802   0.492949   0.066011  -0.027000
     8  C   -0.280052   6.461286  -0.273210  -0.148062  -0.131746   0.041279
     9  C    0.232802  -0.273210   9.344827  -1.750934  -0.144836   0.432297
    10  C    0.492949  -0.148062  -1.750934   9.342950   0.572692  -0.171488
    11  H    0.066011  -0.131746  -0.144836   0.572692   0.501358  -0.018885
    12  H   -0.027000   0.041279   0.432297  -0.171488  -0.018885   0.474728
    13  H   -0.006493   0.006478   0.052536   0.036533   0.000025   0.004009
    14  H    0.001428   0.000898   0.004135   0.002553  -0.000120  -0.000169
    15  H    0.037914   0.003106  -0.023107  -0.006017   0.000007   0.000151
    16  H   -0.195093   0.052167  -0.006676  -0.030724  -0.001340   0.001463
    17  H    0.601166  -0.138981  -0.002718   0.067970   0.004149  -0.001268
    18  H   -0.086322   0.472307  -0.014348  -0.094137  -0.014980   0.002251
              13         14         15         16         17         18
     1  C   -0.018226  -0.034738  -0.084616   0.049522  -0.002908   0.034559
     2  C   -0.021738   0.037587   0.421644  -0.042156   0.024770  -0.007724
     3  C   -0.012072   0.302216  -0.000094   0.047922  -0.010382   0.003514
     4  C    0.443847   0.032643  -0.037445  -0.036924   0.011311  -0.006924
     5  C   -0.107475  -0.016435  -0.023134   0.055157  -0.051715   0.034942
     6  C   -0.031638   0.004710   0.060114   0.456849  -0.180283  -0.011184
     7  C   -0.006493   0.001428   0.037914  -0.195093   0.601166  -0.086322
     8  C    0.006478   0.000898   0.003106   0.052167  -0.138981   0.472307
     9  C    0.052536   0.004135  -0.023107  -0.006676  -0.002718  -0.014348
    10  C    0.036533   0.002553  -0.006017  -0.030724   0.067970  -0.094137
    11  H    0.000025  -0.000120   0.000007  -0.001340   0.004149  -0.014980
    12  H    0.004009  -0.000169   0.000151   0.001463  -0.001268   0.002251
    13  H    0.477233  -0.001697  -0.000798   0.000285  -0.000025   0.000241
    14  H   -0.001697   0.457861  -0.000105  -0.000164  -0.000138  -0.000003
    15  H   -0.000798  -0.000105   0.465922   0.002070   0.000436   0.000186
    16  H    0.000285  -0.000164   0.002070   0.480888  -0.022678   0.002463
    17  H   -0.000025  -0.000138   0.000436  -0.022678   0.499192  -0.014357
    18  H    0.000241  -0.000003   0.000186   0.002463  -0.014357   0.476732
 Mulliken charges:
               1
     1  C    0.121738
     2  C   -0.194046
     3  C   -0.327981
     4  C   -0.164338
     5  C    0.149072
     6  C   -0.123634
     7  C   -0.336454
     8  C   -0.298493
     9  C   -0.089903
    10  C   -0.340735
    11  H    0.214094
    12  H    0.192196
    13  H    0.178976
    14  H    0.209536
    15  H    0.183763
    16  H    0.186969
    17  H    0.216458
    18  H    0.222783
 Sum of Mulliken charges =  -0.00000
 Mulliken charges with hydrogens summed into heavy atoms:
               1
     1  C    0.121738
     2  C   -0.010283
     3  C   -0.118445
     4  C    0.014638
     5  C    0.149072
     6  C    0.063335
     7  C   -0.119996
     8  C   -0.075710
     9  C    0.102293
    10  C   -0.126641
 Electronic spatial extent (au):  <R**2>=           1333.4241
 Charge=             -0.0000 electrons
 Dipole moment (field-independent basis, Debye):
    X=              1.3375    Y=             -0.9413    Z=              0.0000  Tot=              1.6355
 Quadrupole moment (field-independent basis, Debye-Ang):
   XX=            -51.0532   YY=            -50.6588   ZZ=            -65.4075
   XY=              0.4188   XZ=              0.0000   YZ=              0.0000
 Traceless Quadrupole moment (field-independent basis, Debye-Ang):
   XX=              4.6533   YY=              5.0477   ZZ=             -9.7010
   XY=              0.4188   XZ=              0.0000   YZ=              0.0000
 Octapole moment (field-independent basis, Debye-Ang**2):
  XXX=              9.0590  YYY=             -6.5129  ZZZ=              0.0000  XYY=              2.2224
  XXY=             -1.8685  XXZ=              0.0000  XZZ=              1.6704  YZZ=             -1.0575
  YYZ=              0.0000  XYZ=              0.0000
 Hexadecapole moment (field-independent basis, Debye-Ang**3):
 XXXX=           -889.9707 YYYY=           -736.4286 ZZZZ=            -79.7467 XXXY=            132.3759
 XXXZ=              0.0000 YYYX=            140.2628 YYYZ=              0.0000 ZZZX=              0.0000
 ZZZY=              0.0000 XXYY=           -260.6634 XXZZ=           -203.0978 YYZZ=           -169.2225
 XXYZ=              0.0000 YYXZ=              0.0000 ZZXY=             59.8002
 N-N= 4.492442836058D+02 E-N=-1.792727042986D+03  KE= 3.835776035938D+02
 Symmetry A'   KE= 3.731053252290D+02
 Symmetry A"   KE= 1.047227836485D+01
 PrsmSu:  requested number of processors reduced to:  29 ShMem   1 Linda.
 Calling FoFJK, ICntrl=      2127 FMM=F ISym2X=1 I1Cent= 0 IOpClX= 0 NMat=1 NMatS=1 NMatT=0.
 ***** Axes restored to original set *****
 -------------------------------------------------------------------
 Center     Atomic                   Forces (Hartrees/Bohr)
 Number     Number              X              Y              Z
 -------------------------------------------------------------------
      1        6          -0.036795075   -0.020579888   -0.000000000
      2        6           0.026787355    0.046566233   -0.000000000
      3        6           0.043656418   -0.040730362   -0.000000000
      4        6          -0.006086987    0.001262028   -0.000000000
      5        6           0.016382713    0.029451910   -0.000000000
      6        6           0.008259858    0.016154655   -0.000000000
      7        6           0.020616549    0.047557821   -0.000000000
      8        6          -0.052159334   -0.005402517   -0.000000000
      9        6          -0.028450172   -0.003605412   -0.000000000
     10        6           0.015929760   -0.023990374   -0.000000000
     11        1          -0.006320588   -0.004247541   -0.000000000
     12        1          -0.000982999   -0.006670418   -0.000000000
     13        1           0.001277647   -0.007205519   -0.000000000
     14        1          -0.007589409    0.001994342   -0.000000000
     15        1          -0.003309624   -0.006900333   -0.000000000
     16        1          -0.006634419   -0.010676084   -0.000000000
     17        1           0.005419092   -0.008959265   -0.000000000
     18        1           0.009999216   -0.004019277   -0.000000000
 -------------------------------------------------------------------
 Cartesian Forces:  Max     0.052159334 RMS     0.017992322

 GradGradGradGradGradGradGradGradGradGradGradGradGradGradGradGradGradGrad
 Berny optimization.
 FormGI is forming the generalized inverse of G from B-inverse, IUseBI=4.
 Internal  Forces:  Max     0.048611232 RMS     0.009968409
 Search for a local minimum.
 Step number   1 out of a maximum of  103
 All quantities printed in internal units (Hartrees-Bohrs-Radians)
 Mixed Optimization -- RFO/linear search
 Second derivative matrix not updated -- first step.
 ITU=  0
     Eigenvalues ---    0.01334   0.01451   0.01498   0.01571   0.01598
     Eigenvalues ---    0.01644   0.01693   0.01742   0.01785   0.01918
     Eigenvalues ---    0.01942   0.02027   0.02074   0.02103   0.02114
     Eigenvalues ---    0.16000   0.16000   0.16000   0.16000   0.16000
     Eigenvalues ---    0.16000   0.16000   0.16000   0.22000   0.22000
     Eigenvalues ---    0.22210   0.22938   0.24058   0.24757   0.33549
     Eigenvalues ---    0.33961   0.33961   0.34483   0.35286   0.36401
     Eigenvalues ---    0.37108   0.37230   0.37230   0.37230   0.37230
     Eigenvalues ---    0.37230   0.40814   0.41060   0.41760   0.42702
     Eigenvalues ---    0.44343   0.45563   0.47940
 RFO step:  Lambda=-2.35488363D-02 EMin= 1.33414990D-02
 Linear search not attempted -- first point.
 Iteration  1 RMS(Cart)=  0.03751191 RMS(Int)=  0.00037413
 Iteration  2 RMS(Cart)=  0.00043108 RMS(Int)=  0.00012761
 Iteration  3 RMS(Cart)=  0.00000010 RMS(Int)=  0.00012761
 ClnCor:  largest displacement from symmetrization is 1.68D-09 for atom    17.
 Variable       Old X    -DE/DX   Delta X   Delta X   Delta X     New X
                                 (Linear)    (Quad)   (Total)
    R1        2.74939  -0.04034   0.00000  -0.10253  -0.10266   2.64673
    R2        2.75749   0.00770   0.00000   0.02588   0.02540   2.78289
    R3        2.64351  -0.01181   0.00000  -0.02356  -0.02365   2.61986
    R4        2.75734  -0.03923   0.00000  -0.10437  -0.10410   2.65325
    R5        2.02201   0.00752   0.00000   0.01899   0.01899   2.04100
    R6        2.67003  -0.01411   0.00000  -0.03187  -0.03157   2.63846
    R7        2.02201   0.00783   0.00000   0.01977   0.01977   2.04178
    R8        2.66996  -0.01686   0.00000  -0.03334  -0.03342   2.63654
    R9        2.06522  -0.00720   0.00000  -0.01956  -0.01956   2.04566
   R10        2.69150  -0.03059   0.00000  -0.06764  -0.06770   2.62379
   R11        2.64353  -0.00871   0.00000  -0.01881  -0.01881   2.62473
   R12        2.02201   0.01256   0.00000   0.03174   0.03174   2.05374
   R13        2.75732  -0.04861   0.00000  -0.12563  -0.12553   2.63179
   R14        2.02201   0.01031   0.00000   0.02605   0.02605   2.04806
   R15        2.69145  -0.02587   0.00000  -0.06034  -0.06022   2.63123
   R16        2.02201   0.01073   0.00000   0.02712   0.02712   2.04913
   R17        2.61412   0.00325   0.00000   0.00627   0.00632   2.62044
   R18        2.07396  -0.00672   0.00000  -0.01851  -0.01851   2.05545
   R19        2.07397  -0.00762   0.00000  -0.02097  -0.02097   2.05300
    A1        1.87144  -0.00073   0.00000  -0.00167  -0.00203   1.86941
    A2        2.18006   0.00282   0.00000   0.00463   0.00505   2.18511
    A3        2.23169  -0.00208   0.00000  -0.00296  -0.00301   2.22867
    A4        1.87150   0.00368   0.00000   0.00644   0.00651   1.87801
    A5        2.20584  -0.00328   0.00000  -0.01108  -0.01112   2.19472
    A6        2.20584  -0.00040   0.00000   0.00464   0.00461   2.21045
    A7        1.87823   0.01243   0.00000   0.04283   0.04330   1.92154
    A8        2.20248  -0.00680   0.00000  -0.02460  -0.02484   2.17764
    A9        2.20248  -0.00563   0.00000  -0.01823  -0.01847   2.18401
   A10        1.92537  -0.01083   0.00000  -0.03913  -0.03898   1.88639
   A11        2.17892   0.00673   0.00000   0.02676   0.02669   2.20560
   A12        2.17890   0.00409   0.00000   0.01237   0.01230   2.19119
   A13        1.87823  -0.00454   0.00000  -0.00847  -0.00880   1.86943
   A14        2.23659  -0.00323   0.00000  -0.00992  -0.00996   2.22663
   A15        2.16837   0.00777   0.00000   0.01839   0.01876   2.18713
   A16        2.26573  -0.00354   0.00000  -0.01291  -0.01307   2.25266
   A17        2.00873   0.00136   0.00000   0.00420   0.00429   2.01301
   A18        2.00873   0.00218   0.00000   0.00871   0.00879   2.01751
   A19        2.23162   0.00354   0.00000   0.00964   0.00970   2.24131
   A20        2.02578   0.00007   0.00000   0.00519   0.00517   2.03095
   A21        2.02578  -0.00361   0.00000  -0.01484  -0.01486   2.01092
   A22        2.23670   0.00763   0.00000   0.02439   0.02456   2.26127
   A23        2.02324  -0.00478   0.00000  -0.01743  -0.01752   2.00573
   A24        2.02324  -0.00285   0.00000  -0.00696  -0.00705   2.01619
   A25        2.25281  -0.00264   0.00000  -0.00676  -0.00684   2.24597
   A26        2.00452   0.00078   0.00000   0.00043   0.00047   2.00499
   A27        2.02586   0.00186   0.00000   0.00633   0.00637   2.03223
   A28        2.25283   0.00032   0.00000  -0.00149  -0.00137   2.25146
   A29        2.00446  -0.00016   0.00000   0.00075   0.00069   2.00515
   A30        2.02589  -0.00016   0.00000   0.00074   0.00068   2.02657
    D1        0.00000   0.00000   0.00000  -0.00000   0.00000   0.00000
    D2        3.14159  -0.00000   0.00000  -0.00000   0.00000   3.14159
    D3        3.14159  -0.00000   0.00000  -0.00000   0.00000   3.14159
    D4        0.00000  -0.00000   0.00000  -0.00000   0.00000   0.00000
    D5        0.00000   0.00000   0.00000   0.00000   0.00000   0.00000
    D6        3.14159   0.00000   0.00000   0.00000   0.00000   3.14159
    D7        3.14159   0.00000   0.00000   0.00000   0.00000   3.14159
    D8        0.00000   0.00000   0.00000   0.00000   0.00000   0.00000
    D9        3.14159   0.00000   0.00000   0.00000   0.00000   3.14159
   D10        0.00000   0.00000   0.00000   0.00000   0.00000   0.00000
   D11        0.00000   0.00000   0.00000   0.00000   0.00000   0.00000
   D12        3.14159  -0.00000   0.00000   0.00000   0.00000   3.14159
   D13        0.00000   0.00000   0.00000  -0.00000   0.00000   0.00000
   D14        3.14159   0.00000   0.00000   0.00000   0.00000   3.14159
   D15        3.14159   0.00000   0.00000  -0.00000   0.00000   3.14159
   D16        0.00000   0.00000   0.00000   0.00000   0.00000   0.00000
   D17        0.00000   0.00000   0.00000   0.00000   0.00000   0.00000
   D18        3.14159  -0.00000   0.00000   0.00000   0.00000   3.14159
   D19        3.14159  -0.00000   0.00000  -0.00000   0.00000   3.14159
   D20        0.00000  -0.00000   0.00000  -0.00000   0.00000   0.00000
   D21        0.00000  -0.00000   0.00000  -0.00000   0.00000   0.00000
   D22        3.14159  -0.00000   0.00000  -0.00000   0.00000   3.14159
   D23        3.14159  -0.00000   0.00000  -0.00000   0.00000   3.14159
   D24        0.00000   0.00000   0.00000   0.00000   0.00000   0.00000
   D25        0.00000  -0.00000   0.00000  -0.00000   0.00000   0.00000
   D26        3.14159  -0.00000   0.00000  -0.00000   0.00000   3.14159
   D27        3.14159  -0.00000   0.00000  -0.00000   0.00000   3.14159
   D28        0.00000  -0.00000   0.00000  -0.00000   0.00000   0.00000
   D29        0.00000  -0.00000   0.00000  -0.00000   0.00000   0.00000
   D30        3.14159  -0.00000   0.00000  -0.00000   0.00000   3.14159
   D31        3.14159  -0.00000   0.00000  -0.00000   0.00000   3.14159
   D32        0.00000   0.00000   0.00000  -0.00000   0.00000   0.00000
   D33        0.00000  -0.00000   0.00000   0.00000   0.00000   0.00000
   D34        3.14159  -0.00000   0.00000  -0.00000   0.00000   3.14159
   D35        3.14159   0.00000   0.00000  -0.00000   0.00000   3.14159
   D36        0.00000  -0.00000   0.00000  -0.00000   0.00000   0.00000
   D37        0.00000   0.00000   0.00000   0.00000   0.00000   0.00000
   D38        3.14159   0.00000   0.00000   0.00000   0.00000   3.14159
   D39        3.14159   0.00000   0.00000   0.00000   0.00000   3.14159
   D40        0.00000   0.00000   0.00000   0.00000   0.00000   0.00000
   D41        0.00000   0.00000   0.00000   0.00000   0.00000   0.00000
   D42        3.14159   0.00000   0.00000   0.00000   0.00000   3.14159
   D43        3.14159  -0.00000   0.00000  -0.00000   0.00000   3.14159
   D44        0.00000  -0.00000   0.00000  -0.00000   0.00000   0.00000
         Item               Value     Threshold  Converged?
 Maximum Force            0.048611     0.000450     NO 
 RMS     Force            0.009968     0.000300     NO 
 Maximum Displacement     0.125652     0.001800     NO 
 RMS     Displacement     0.037660     0.001200     NO 
 Predicted change in Energy=-1.249969D-02
 GradGradGradGradGradGradGradGradGradGradGradGradGradGradGradGradGradGrad

                          Input orientation:                          
 ---------------------------------------------------------------------
 Center     Atomic      Atomic             Coordinates (Angstroms)
 Number     Number       Type             X           Y           Z
 ---------------------------------------------------------------------
      1          6           0        0.726587    3.808392    0.000000
      2          6           0       -0.673990    3.814083    0.000000
      3          6           0       -1.093136    5.154097    0.000000
      4          6           0        0.015072    6.003384    0.000000
      5          6           0        1.165544    5.214089    0.000000
      6          6           0        1.521073    2.672250    0.000000
      7          6           0        2.906457    2.572863    0.000000
      8          6           0        3.847719    3.599309    0.000000
      9          6           0        2.468311    5.694297    0.000000
     10          6           0        3.655912    4.978419    0.000000
     11          1           0        4.569056    5.567004    0.000000
     12          1           0        2.556358    6.778423    0.000000
     13          1           0       -0.005587    7.085706    0.000000
     14          1           0       -2.124154    5.477204    0.000000
     15          1           0       -1.308540    2.940097    0.000000
     16          1           0        0.982637    1.728210    0.000000
     17          1           0        3.317033    1.569858    0.000000
     18          1           0        4.881303    3.271406    0.000000
 ---------------------------------------------------------------------
                    Distance matrix (angstroms):
                    1          2          3          4          5
     1  C    0.000000
     2  C    1.400588   0.000000
     3  C    2.263253   1.404038   0.000000
     4  C    2.307432   2.295179   1.396214   0.000000
     5  C    1.472640   2.311688   2.259477   1.395197   0.000000
     6  C    1.386372   2.474284   3.604671   3.655748   2.566583
     7  C    2.505668   3.789489   4.760202   4.486490   3.163362
     8  C    3.128128   4.526807   5.179712   4.524242   3.130747
     9  C    2.567147   3.661865   3.602183   2.472634   1.388452
    10  C    3.154348   4.483718   4.752297   3.782363   2.501494
    11  H    4.225788   5.528314   5.677227   4.574844   3.421760
    12  H    3.488431   4.384342   3.994652   2.656844   2.093204
    13  H    3.358104   3.339203   2.216726   1.082518   2.207826
    14  H    3.303280   2.206570   1.080461   2.202987   3.300204
    15  H    2.212618   1.080050   2.224455   3.337017   3.360378
    16  H    2.095881   2.663697   4.005688   4.383298   3.490674
    17  H    3.423660   4.578734   5.682989   5.528029   4.231941
    18  H    4.189275   5.581736   6.264060   5.580673   4.192956
                    6          7          8          9         10
     6  C    0.000000
     7  C    1.388945   0.000000
     8  C    2.504540   1.392683   0.000000
     9  C    3.167022   3.152035   2.508335   0.000000
    10  C    3.142604   2.519600   1.392385   1.386679   0.000000
    11  H    4.203546   3.424780   2.095746   2.104598   1.086399
    12  H    4.234676   4.220108   3.431382   1.087696   2.109274
    13  H    4.670041   5.370824   5.196434   2.838343   4.224599
    14  H    4.599505   5.808808   6.260173   4.597594   5.801548
    15  H    2.842262   4.230965   5.198228   4.674422   5.366614
    16  H    1.086795   2.101076   3.421944   4.235218   4.208355
    17  H    2.107306   1.083785   2.097688   4.210858   3.425365
    18  H    3.413230   2.094750   1.084351   3.419493   2.101303
                   11         12         13         14         15
    11  H    0.000000
    12  H    2.349147   0.000000
    13  H    4.820147   2.580307   0.000000
    14  H    6.693813   4.858021   2.660001   0.000000
    15  H    6.437917   5.447035   4.345545   2.664984   0.000000
    16  H    5.253450   5.289731   5.447875   4.868995   2.591942
    17  H    4.188643   5.263817   6.439284   6.698796   4.824260
    18  H    2.316736   4.207676   6.199240   7.344521   6.198704
                   16         17         18
    16  H    0.000000
    17  H    2.339760   0.000000
    18  H    4.192976   2.311321   0.000000
 Stoichiometry    C10H8
 Framework group  CS[SG(C10H8)]
 Deg. of freedom    33
 Full point group                 CS      NOp   2
 Largest Abelian subgroup         CS      NOp   2
 Largest concise Abelian subgroup C1      NOp   1
                         Standard orientation:                         
 ---------------------------------------------------------------------
 Center     Atomic      Atomic             Coordinates (Angstroms)
 Number     Number       Type             X           Y           Z
 ---------------------------------------------------------------------
      1          6           0       -0.000000   -0.918798    0.000000
      2          6           0       -0.823160   -2.051959    0.000000
      3          6           0       -2.155467   -1.608924    0.000000
      4          6           0       -2.196942   -0.213326    0.000000
      5          6           0       -0.884101    0.258926    0.000000
      6          6           0        1.386238   -0.938117   -0.000000
      7          6           0        2.276549    0.127957   -0.000000
      8          6           0        1.993751    1.491625   -0.000000
      9          6           0       -0.512382    1.596695    0.000000
     10          6           0        0.762584    2.141982   -0.000000
     11          1           0        0.818653    3.226934   -0.000000
     12          1           0       -1.340631    2.301739    0.000000
     13          1           0       -3.087257    0.402454    0.000000
     14          1           0       -3.020211   -2.256702    0.000000
     15          1           0       -0.484823   -3.077646    0.000000
     16          1           0        1.837592   -1.926754   -0.000000
     17          1           0        3.330382   -0.125073   -0.000000
     18          1           0        2.863885    2.138682   -0.000000
 ---------------------------------------------------------------------
 Rotational constants (GHZ):           2.8821765           1.2682119           0.8806912
 Standard basis: 6-311++G(d,p) (5D, 7F)
 There are   218 symmetry adapted cartesian basis functions of A'  symmetry.
 There are    68 symmetry adapted cartesian basis functions of A"  symmetry.
 There are   208 symmetry adapted basis functions of A'  symmetry.
 There are    68 symmetry adapted basis functions of A"  symmetry.
   276 basis functions,   432 primitive gaussians,   286 cartesian basis functions
    34 alpha electrons       34 beta electrons
       nuclear repulsion energy       456.1374085234 Hartrees.
 NAtoms=   18 NActive=   18 NUniq=   18 SFac= 1.00D+00 NAtFMM=   60 NAOKFM=F Big=F
 Integral buffers will be    131072 words long.
 Raffenetti 2 integral format.
 Two-electron integral symmetry is turned on.
 Nuclear repulsion after empirical dispersion term =      456.1279157852 Hartrees.
 One-electron integrals computed using PRISM.
 PrsmSu:  requested number of processors reduced to:  29 ShMem   1 Linda.
 NBasis=   276 RedAO= T EigKep=  1.61D-06  NBF=   208    68
 NBsUse=   273 1.00D-06 EigRej=  9.92D-07 NBFU=   205    68
 Initial guess from the checkpoint file:  "Azulene.chk"
 B after Tr=    -0.000000   -0.000000    0.000000
         Rot=    0.796495    0.000000   -0.000000   -0.604645 Ang= -74.41 deg.
 Initial guess orbital symmetries:
       Occupied  (A') (A') (A') (A') (A') (A') (A') (A') (A') (A')
                 (A') (A') (A') (A') (A') (A') (A') (A') (A') (A')
                 (A') (A') (A') (A') (A') (A") (A') (A') (A') (A')
                 (A") (A") (A") (A")
       Virtual   (A") (A") (A') (A') (A') (A') (A') (A') (A') (A")
                 (A') (A') (A") (A") (A") (A') (A') (A') (A') (A")
                 (A") (A') (A') (A') (A") (A') (A') (A') (A") (A')
                 (A") (A') (A') (A") (A') (A') (A") (A') (A") (A')
                 (A') (A") (A') (A') (A') (A') (A') (A') (A') (A')
                 (A') (A') (A') (A') (A') (A') (A') (A') (A') (A')
                 (A') (A') (A') (A') (A') (A') (A') (A') (A') (A')
                 (A") (A') (A') (A') (A") (A") (A') (A') (A') (A")
                 (A") (A') (A') (A') (A") (A") (A") (A") (A') (A")
                 (A') (A') (A') (A') (A') (A') (A') (A') (A') (A')
                 (A') (A') (A') (A') (A') (A') (A') (A') (A') (A')
                 (A") (A') (A") (A') (A") (A") (A') (A") (A') (A")
                 (A") (A') (A") (A") (A') (A') (A') (A') (A') (A')
                 (A") (A') (A") (A') (A") (A') (A') (A') (A") (A")
                 (A') (A') (A') (A") (A') (A') (A') (A") (A") (A")
                 (A") (A') (A') (A") (A') (A') (A') (A") (A') (A')
                 (A') (A') (A") (A") (A') (A') (A") (A') (A') (A")
                 (A') (A') (A") (A") (A') (A') (A") (A') (A') (A')
                 (A') (A') (A') (A') (A') (A") (A') (A') (A') (A')
                 (A") (A') (A') (A') (A') (A') (A") (A') (A") (A')
                 (A") (A") (A") (A") (A") (A") (A') (A') (A') (A')
                 (A') (A') (A') (A') (A') (A') (A') (A') (A') (A')
                 (A') (A') (A') (A') (A') (A') (A') (A') (A') (A')
                 (A') (A') (A') (A') (A') (A') (A') (A') (A')
 ExpMin= 3.60D-02 ExpMax= 4.56D+03 ExpMxC= 6.82D+02 IAcc=3 IRadAn=         5 AccDes= 0.00D+00
 Harris functional with IExCor= 4639 and IRadAn=       5 diagonalized for initial guess.
 HarFok:  IExCor= 4639 AccDes= 0.00D+00 IRadAn=         5 IDoV= 1 UseB2=F ITyADJ=14
 ICtDFT=  3500011 ScaDFX=  1.000000  1.000000  1.000000  1.000000
 FoFCou: FMM=F IPFlag=           0 FMFlag=      100000 FMFlg1=           0
         NFxFlg=           0 DoJE=T BraDBF=F KetDBF=T FulRan=T
         wScrn=  0.000000 ICntrl=       500 IOpCl=  0 I1Cent=   200000004 NGrid=           0
         NMat0=    1 NMatS0=      1 NMatT0=    0 NMatD0=    1 NMtDS0=    0 NMtDT0=    0
 Petite list used in FoFCou.
 Requested convergence on RMS density matrix=1.00D-08 within 128 cycles.
 Requested convergence on MAX density matrix=1.00D-06.
 Requested convergence on             energy=1.00D-06.
 No special actions if energy rises.
 SCF Done:  E(RwB97XD) =  -385.783066550     A.U. after   16 cycles
            NFock= 16  Conv=0.44D-08     -V/T= 2.0041
 PrsmSu:  requested number of processors reduced to:  29 ShMem   1 Linda.
 Calling FoFJK, ICntrl=      2127 FMM=F ISym2X=1 I1Cent= 0 IOpClX= 0 NMat=1 NMatS=1 NMatT=0.
 ***** Axes restored to original set *****
 -------------------------------------------------------------------
 Center     Atomic                   Forces (Hartrees/Bohr)
 Number     Number              X              Y              Z
 -------------------------------------------------------------------
      1        6          -0.003594262   -0.011138184   -0.000000000
      2        6          -0.000225994    0.007551083   -0.000000000
      3        6          -0.001487713   -0.005347583    0.000000000
      4        6          -0.003679885    0.002692914   -0.000000000
      5        6           0.007592369    0.008489696    0.000000000
      6        6           0.000529748   -0.001253326    0.000000000
      7        6           0.002986806    0.001887808    0.000000000
      8        6          -0.004282760   -0.000228251   -0.000000000
      9        6          -0.003250337   -0.000076376   -0.000000000
     10        6           0.006352850   -0.000804226    0.000000000
     11        1          -0.000852400    0.000846861   -0.000000000
     12        1           0.000988603   -0.000014690    0.000000000
     13        1           0.000283007   -0.000993751    0.000000000
     14        1          -0.001493695    0.000712068   -0.000000000
     15        1          -0.000149960   -0.000516266    0.000000000
     16        1          -0.000824219   -0.000479599   -0.000000000
     17        1          -0.000627213   -0.001620996   -0.000000000
     18        1           0.001735055    0.000292817    0.000000000
 -------------------------------------------------------------------
 Cartesian Forces:  Max     0.011138184 RMS     0.002960290

 GradGradGradGradGradGradGradGradGradGradGradGradGradGradGradGradGradGrad
 Berny optimization.
 Using GEDIIS/GDIIS optimizer.
 FormGI is forming the generalized inverse of G from B-inverse, IUseBI=4.
 Internal  Forces:  Max     0.008597858 RMS     0.001470679
 Search for a local minimum.
 Step number   2 out of a maximum of  103
 All quantities printed in internal units (Hartrees-Bohrs-Radians)
 Mixed Optimization -- RFO/linear search
 Update second derivatives using D2CorX and points    1    2
 DE= -1.24D-02 DEPred=-1.25D-02 R= 9.90D-01
 TightC=F SS=  1.41D+00  RLast= 2.47D-01 DXNew= 5.0454D-01 7.4107D-01
 Trust test= 9.90D-01 RLast= 2.47D-01 DXMaxT set to 5.05D-01
 ITU=  1  0
 Use linear search instead of GDIIS.
     Eigenvalues ---    0.01334   0.01451   0.01498   0.01570   0.01599
     Eigenvalues ---    0.01644   0.01695   0.01742   0.01783   0.01918
     Eigenvalues ---    0.01942   0.02027   0.02074   0.02103   0.02115
     Eigenvalues ---    0.15963   0.16000   0.16000   0.16000   0.16000
     Eigenvalues ---    0.16000   0.16000   0.16055   0.21891   0.22000
     Eigenvalues ---    0.22410   0.23060   0.24022   0.24749   0.30431
     Eigenvalues ---    0.33960   0.33980   0.34473   0.35411   0.36669
     Eigenvalues ---    0.37053   0.37225   0.37230   0.37230   0.37230
     Eigenvalues ---    0.37858   0.40928   0.41027   0.42604   0.43544
     Eigenvalues ---    0.45536   0.46392   0.48804
 RFO step:  Lambda=-6.34717013D-04 EMin= 1.33383767D-02
 Quartic linear search produced a step of  0.01032.
 Iteration  1 RMS(Cart)=  0.00596270 RMS(Int)=  0.00001687
 Iteration  2 RMS(Cart)=  0.00002551 RMS(Int)=  0.00000355
 Iteration  3 RMS(Cart)=  0.00000000 RMS(Int)=  0.00000355
 ClnCor:  largest displacement from symmetrization is 9.27D-11 for atom    18.
 Variable       Old X    -DE/DX   Delta X   Delta X   Delta X     New X
                                 (Linear)    (Quad)   (Total)
    R1        2.64673   0.00130  -0.00106   0.00156   0.00050   2.64723
    R2        2.78289   0.00860   0.00026   0.02533   0.02560   2.80848
    R3        2.61986   0.00150  -0.00024   0.00313   0.00289   2.62275
    R4        2.65325  -0.00300  -0.00107  -0.01104  -0.01212   2.64112
    R5        2.04100   0.00051   0.00020   0.00164   0.00184   2.04284
    R6        2.63846   0.00238  -0.00033   0.00467   0.00434   2.64280
    R7        2.04178   0.00164   0.00020   0.00472   0.00493   2.04670
    R8        2.63654   0.00479  -0.00034   0.01154   0.01120   2.64774
    R9        2.04566  -0.00100  -0.00020  -0.00320  -0.00340   2.04226
   R10        2.62379   0.00053  -0.00070   0.00057  -0.00013   2.62366
   R11        2.62473   0.00206  -0.00019   0.00412   0.00392   2.62865
   R12        2.05374   0.00083   0.00033   0.00269   0.00302   2.05677
   R13        2.63179   0.00054  -0.00129  -0.00076  -0.00205   2.62974
   R14        2.04806   0.00126   0.00027   0.00380   0.00407   2.05212
   R15        2.63123   0.00054  -0.00062   0.00009  -0.00053   2.63069
   R16        2.04913   0.00157   0.00028   0.00463   0.00491   2.05404
   R17        2.62044   0.00313   0.00007   0.00659   0.00665   2.62710
   R18        2.05545   0.00006  -0.00019  -0.00007  -0.00026   2.05519
   R19        2.05300  -0.00026  -0.00022  -0.00106  -0.00128   2.05172
    A1        1.86941  -0.00174  -0.00002  -0.00684  -0.00685   1.86256
    A2        2.18511   0.00262   0.00005   0.00958   0.00962   2.19473
    A3        2.22867  -0.00088  -0.00003  -0.00273  -0.00277   2.22590
    A4        1.87801   0.00334   0.00007   0.01240   0.01247   1.89048
    A5        2.19472  -0.00185  -0.00011  -0.00745  -0.00757   2.18716
    A6        2.21045  -0.00149   0.00005  -0.00495  -0.00490   2.20555
    A7        1.92154   0.00004   0.00045  -0.00215  -0.00172   1.91982
    A8        2.17764   0.00022  -0.00026   0.00255   0.00230   2.17994
    A9        2.18401  -0.00026  -0.00019  -0.00040  -0.00058   2.18343
   A10        1.88639   0.00091  -0.00040   0.00467   0.00426   1.89065
   A11        2.20560  -0.00018   0.00028  -0.00054  -0.00026   2.20534
   A12        2.19119  -0.00073   0.00013  -0.00413  -0.00399   2.18720
   A13        1.86943  -0.00255  -0.00009  -0.00807  -0.00816   1.86127
   A14        2.22663  -0.00035  -0.00010  -0.00159  -0.00169   2.22493
   A15        2.18713   0.00290   0.00019   0.00966   0.00985   2.19698
   A16        2.25266  -0.00056  -0.00013  -0.00240  -0.00253   2.25013
   A17        2.01301  -0.00021   0.00004  -0.00193  -0.00188   2.01113
   A18        2.01751   0.00077   0.00009   0.00432   0.00441   2.02193
   A19        2.24131   0.00065   0.00010   0.00222   0.00232   2.24364
   A20        2.03095  -0.00155   0.00005  -0.00870  -0.00865   2.02230
   A21        2.01092   0.00090  -0.00015   0.00648   0.00632   2.01724
   A22        2.26127   0.00175   0.00025   0.00710   0.00735   2.26862
   A23        2.00573  -0.00005  -0.00018   0.00156   0.00137   2.00710
   A24        2.01619  -0.00170  -0.00007  -0.00865  -0.00873   2.00747
   A25        2.24597   0.00056  -0.00007   0.00330   0.00322   2.24919
   A26        2.00499   0.00073   0.00000   0.00470   0.00471   2.00970
   A27        2.03223  -0.00130   0.00007  -0.00800  -0.00793   2.02430
   A28        2.25146  -0.00118  -0.00001  -0.00590  -0.00591   2.24555
   A29        2.00515   0.00179   0.00001   0.01051   0.01052   2.01567
   A30        2.02657  -0.00061   0.00001  -0.00462  -0.00461   2.02196
    D1       -0.00000  -0.00000   0.00000  -0.00000   0.00000   0.00000
    D2        3.14159  -0.00000   0.00000   0.00000   0.00000   3.14159
    D3        3.14159  -0.00000   0.00000  -0.00000   0.00000   3.14159
    D4        0.00000   0.00000   0.00000   0.00000   0.00000   0.00000
    D5       -0.00000   0.00000   0.00000   0.00000   0.00000   0.00000
    D6        3.14159   0.00000   0.00000   0.00000   0.00000   3.14159
    D7        3.14159   0.00000   0.00000  -0.00000   0.00000   3.14159
    D8        0.00000   0.00000   0.00000   0.00000   0.00000   0.00000
    D9        3.14159  -0.00000   0.00000   0.00000   0.00000   3.14159
   D10       -0.00000  -0.00000   0.00000  -0.00000   0.00000   0.00000
   D11        0.00000   0.00000   0.00000   0.00000   0.00000   0.00000
   D12        3.14159  -0.00000   0.00000  -0.00000   0.00000   3.14159
   D13       -0.00000  -0.00000   0.00000   0.00000   0.00000   0.00000
   D14        3.14159   0.00000   0.00000   0.00000   0.00000   3.14159
   D15        3.14159   0.00000   0.00000  -0.00000   0.00000   3.14159
   D16        0.00000  -0.00000   0.00000  -0.00000  -0.00000   0.00000
   D17       -0.00000  -0.00000   0.00000  -0.00000   0.00000   0.00000
   D18        3.14159  -0.00000   0.00000   0.00000   0.00000   3.14159
   D19        3.14159  -0.00000   0.00000  -0.00000   0.00000   3.14159
   D20       -0.00000   0.00000   0.00000   0.00000   0.00000   0.00000
   D21       -0.00000  -0.00000   0.00000  -0.00000   0.00000   0.00000
   D22        3.14159  -0.00000   0.00000  -0.00000   0.00000   3.14159
   D23        3.14159  -0.00000   0.00000  -0.00000   0.00000   3.14159
   D24        0.00000  -0.00000   0.00000  -0.00000  -0.00000   0.00000
   D25       -0.00000  -0.00000   0.00000  -0.00000   0.00000   0.00000
   D26        3.14159  -0.00000   0.00000  -0.00000   0.00000   3.14159
   D27        3.14159  -0.00000   0.00000  -0.00000   0.00000   3.14159
   D28        0.00000  -0.00000   0.00000  -0.00000   0.00000   0.00000
   D29       -0.00000  -0.00000   0.00000  -0.00000   0.00000   0.00000
   D30        3.14159   0.00000   0.00000  -0.00000   0.00000   3.14159
   D31        3.14159   0.00000   0.00000   0.00000   0.00000   3.14159
   D32        0.00000   0.00000   0.00000   0.00000   0.00000   0.00000
   D33        0.00000  -0.00000   0.00000  -0.00000  -0.00000   0.00000
   D34        3.14159  -0.00000   0.00000  -0.00000   0.00000   3.14159
   D35        3.14159  -0.00000   0.00000  -0.00000   0.00000   3.14159
   D36       -0.00000   0.00000   0.00000  -0.00000   0.00000   0.00000
   D37       -0.00000   0.00000   0.00000   0.00000   0.00000   0.00000
   D38        3.14159   0.00000   0.00000   0.00000   0.00000   3.14159
   D39        3.14159   0.00000   0.00000   0.00000   0.00000   3.14159
   D40        0.00000   0.00000   0.00000   0.00000  -0.00000   0.00000
   D41        0.00000   0.00000   0.00000   0.00000   0.00000   0.00000
   D42        3.14159   0.00000   0.00000   0.00000   0.00000   3.14159
   D43        3.14159   0.00000   0.00000   0.00000   0.00000   3.14159
   D44       -0.00000   0.00000   0.00000   0.00000   0.00000   0.00000
         Item               Value     Threshold  Converged?
 Maximum Force            0.008598     0.000450     NO 
 RMS     Force            0.001471     0.000300     NO 
 Maximum Displacement     0.025801     0.001800     NO 
 RMS     Displacement     0.005952     0.001200     NO 
 Predicted change in Energy=-3.204410D-04
 GradGradGradGradGradGradGradGradGradGradGradGradGradGradGradGradGradGrad

                          Input orientation:                          
 ---------------------------------------------------------------------
 Center     Atomic      Atomic             Coordinates (Angstroms)
 Number     Number       Type             X           Y           Z
 ---------------------------------------------------------------------
      1          6           0        0.724281    3.802499   -0.000000
      2          6           0       -0.676467    3.819785   -0.000000
      3          6           0       -1.099289    5.151915   -0.000000
      4          6           0        0.008630    6.005345   -0.000000
      5          6           0        1.169298    5.220493   -0.000000
      6          6           0        1.521173    2.666176    0.000000
      7          6           0        2.909005    2.572015    0.000000
      8          6           0        3.847943    3.599117    0.000000
      9          6           0        2.473491    5.696610    0.000000
     10          6           0        3.664182    4.979037    0.000000
     11          1           0        4.573973    5.571551    0.000000
     12          1           0        2.570011    6.779876    0.000000
     13          1           0       -0.014952    7.085807   -0.000000
     14          1           0       -2.133408    5.473840   -0.000000
     15          1           0       -1.312209    2.945462   -0.000000
     16          1           0        0.981437    1.721038    0.000000
     17          1           0        3.315594    1.565068    0.000000
     18          1           0        4.884961    3.273458    0.000000
 ---------------------------------------------------------------------
                    Distance matrix (angstroms):
                    1          2          3          4          5
     1  C    0.000000
     2  C    1.400854   0.000000
     3  C    2.268553   1.397623   0.000000
     4  C    2.316179   2.290421   1.398508   0.000000
     5  C    1.486186   2.317074   2.269623   1.401122   0.000000
     6  C    1.387900   2.482022   3.611886   3.665765   2.578440
     7  C    2.507411   3.796384   4.766791   4.494433   3.168756
     8  C    3.130276   4.529788   5.185199   4.531033   3.131134
     9  C    2.578254   3.666703   3.614063   2.484122   1.388383
    10  C    3.166585   4.492783   4.766607   3.796890   2.506541
    11  H    4.236705   5.534961   5.688760   4.585906   3.422725
    12  H    3.503069   4.393376   4.014227   2.675925   2.096108
    13  H    3.365497   3.332341   2.217143   1.080719   2.209489
    14  H    3.310554   2.204218   1.083069   2.206994   3.312409
    15  H    2.209481   1.081022   2.216703   3.332792   3.366548
    16  H    2.097286   2.674581   4.012523   4.393363   3.504494
    17  H    3.423595   4.584790   5.688292   5.536431   4.238953
    18  H    4.194179   5.588198   6.272148   5.589437   4.194889
                    6          7          8          9         10
     6  C    0.000000
     7  C    1.391022   0.000000
     8  C    2.506838   1.391597   0.000000
     9  C    3.176545   3.154800   2.507707   0.000000
    10  C    3.153064   2.522706   1.392102   1.390200   0.000000
    11  H    4.214355   3.430646   2.101813   2.104201   1.085721
    12  H    4.245301   4.221493   3.427877   1.087557   2.107185
    13  H    4.678976   5.378088   5.203745   2.849951   4.239635
    14  H    4.608573   5.817776   6.268265   4.612283   5.818667
    15  H    2.847114   4.237701   5.201387   4.679780   5.375863
    16  H    1.088394   2.107055   3.426957   4.246339   4.220389
    17  H    2.105323   1.085936   2.102557   4.216488   3.431720
    18  H    3.418166   2.096765   1.086950   3.418604   2.097451
                   11         12         13         14         15
    11  H    0.000000
    12  H    2.340066   0.000000
    13  H    4.832308   2.603004   0.000000
    14  H    6.708092   4.881381   2.662009   0.000000
    15  H    6.445423   5.456589   4.338817   2.658395   0.000000
    16  H    5.266190   5.302396   5.456513   4.877067   2.600005
    17  H    4.199455   5.267837   6.447565   6.705977   4.829291
    18  H    2.319040   4.201661   6.208313   7.355215   6.205844
                   16         17         18
    16  H    0.000000
    17  H    2.339362   0.000000
    18  H    4.200894   2.319808   0.000000
 Stoichiometry    C10H8
 Framework group  CS[SG(C10H8)]
 Deg. of freedom    33
 Full point group                 CS      NOp   2
 Largest Abelian subgroup         CS      NOp   2
 Largest concise Abelian subgroup C1      NOp   1
                         Standard orientation:                         
 ---------------------------------------------------------------------
 Center     Atomic      Atomic             Coordinates (Angstroms)
 Number     Number       Type             X           Y           Z
 ---------------------------------------------------------------------
      1          6           0       -0.000000   -0.924358   -0.000000
      2          6           0       -0.836839   -2.047788   -0.000000
      3          6           0       -2.163274   -1.607423   -0.000000
      4          6           0       -2.203097   -0.209482   -0.000000
      5          6           0       -0.886121    0.268762   -0.000000
      6          6           0        1.387716   -0.946974    0.000000
      7          6           0        2.279180    0.120843    0.000000
      8          6           0        1.999544    1.484054    0.000000
      9          6           0       -0.505298    1.603895    0.000000
     10          6           0        0.774868    2.145958    0.000000
     11          1           0        0.829808    3.230288    0.000000
     12          1           0       -1.325253    2.318356   -0.000000
     13          1           0       -3.091336    0.406136   -0.000000
     14          1           0       -3.031277   -2.255195   -0.000000
     15          1           0       -0.502733   -3.075884   -0.000000
     16          1           0        1.835528   -1.938975    0.000000
     17          1           0        3.332918   -0.141634    0.000000
     18          1           0        2.872272    2.131979    0.000000
 ---------------------------------------------------------------------
 Rotational constants (GHZ):           2.8715312           1.2632927           0.8773250
 Standard basis: 6-311++G(d,p) (5D, 7F)
 There are   218 symmetry adapted cartesian basis functions of A'  symmetry.
 There are    68 symmetry adapted cartesian basis functions of A"  symmetry.
 There are   208 symmetry adapted basis functions of A'  symmetry.
 There are    68 symmetry adapted basis functions of A"  symmetry.
   276 basis functions,   432 primitive gaussians,   286 cartesian basis functions
    34 alpha electrons       34 beta electrons
       nuclear repulsion energy       455.3702944526 Hartrees.
 NAtoms=   18 NActive=   18 NUniq=   18 SFac= 1.00D+00 NAtFMM=   60 NAOKFM=F Big=F
 Integral buffers will be    131072 words long.
 Raffenetti 2 integral format.
 Two-electron integral symmetry is turned on.
 Nuclear repulsion after empirical dispersion term =      455.3608147778 Hartrees.
 One-electron integrals computed using PRISM.
 PrsmSu:  requested number of processors reduced to:  29 ShMem   1 Linda.
 NBasis=   276 RedAO= T EigKep=  1.67D-06  NBF=   208    68
 NBsUse=   273 1.00D-06 EigRej=  9.93D-07 NBFU=   205    68
 Initial guess from the checkpoint file:  "Azulene.chk"
 B after Tr=     0.000000   -0.000000   -0.000000
         Rot=    0.999998    0.000000    0.000000    0.001876 Ang=   0.21 deg.
 Initial guess orbital symmetries:
       Occupied  (A') (A') (A') (A') (A') (A') (A') (A') (A') (A')
                 (A') (A') (A') (A') (A') (A') (A') (A') (A') (A')
                 (A') (A') (A') (A') (A") (A') (A') (A') (A') (A")
                 (A') (A") (A") (A")
       Virtual   (A") (A") (A') (A') (A') (A') (A') (A') (A') (A")
                 (A') (A') (A") (A") (A") (A') (A') (A') (A') (A")
                 (A') (A') (A") (A') (A') (A") (A') (A') (A") (A")
                 (A') (A') (A') (A') (A") (A') (A") (A') (A") (A')
                 (A") (A') (A') (A') (A') (A') (A') (A') (A') (A')
                 (A') (A') (A') (A') (A') (A') (A') (A') (A') (A')
                 (A') (A') (A') (A') (A') (A') (A') (A') (A") (A')
                 (A') (A') (A") (A') (A") (A') (A') (A") (A') (A")
                 (A') (A') (A") (A") (A') (A") (A") (A') (A") (A')
                 (A') (A') (A') (A') (A') (A') (A') (A') (A') (A')
                 (A') (A') (A') (A') (A') (A') (A') (A') (A") (A')
                 (A') (A") (A') (A") (A') (A") (A") (A') (A") (A")
                 (A') (A") (A") (A') (A') (A') (A') (A') (A') (A")
                 (A') (A") (A') (A') (A") (A') (A') (A") (A") (A')
                 (A') (A') (A") (A') (A") (A') (A") (A') (A") (A")
                 (A') (A') (A") (A') (A') (A') (A") (A') (A') (A')
                 (A') (A") (A") (A') (A') (A") (A') (A') (A") (A')
                 (A') (A") (A") (A') (A') (A') (A") (A') (A') (A')
                 (A') (A') (A") (A') (A') (A') (A') (A') (A") (A')
                 (A') (A') (A') (A') (A') (A') (A") (A") (A") (A')
                 (A") (A") (A") (A") (A") (A') (A') (A') (A') (A')
                 (A') (A') (A') (A') (A') (A') (A') (A') (A') (A')
                 (A') (A') (A') (A') (A') (A') (A') (A') (A') (A')
                 (A') (A') (A') (A') (A') (A') (A') (A') (A')
 ExpMin= 3.60D-02 ExpMax= 4.56D+03 ExpMxC= 6.82D+02 IAcc=3 IRadAn=         5 AccDes= 0.00D+00
 Harris functional with IExCor= 4639 and IRadAn=       5 diagonalized for initial guess.
 HarFok:  IExCor= 4639 AccDes= 0.00D+00 IRadAn=         5 IDoV= 1 UseB2=F ITyADJ=14
 ICtDFT=  3500011 ScaDFX=  1.000000  1.000000  1.000000  1.000000
 FoFCou: FMM=F IPFlag=           0 FMFlag=      100000 FMFlg1=           0
         NFxFlg=           0 DoJE=T BraDBF=F KetDBF=T FulRan=T
         wScrn=  0.000000 ICntrl=       500 IOpCl=  0 I1Cent=   200000004 NGrid=           0
         NMat0=    1 NMatS0=      1 NMatT0=    0 NMatD0=    1 NMtDS0=    0 NMtDT0=    0
 Petite list used in FoFCou.
 Requested convergence on RMS density matrix=1.00D-08 within 128 cycles.
 Requested convergence on MAX density matrix=1.00D-06.
 Requested convergence on             energy=1.00D-06.
 No special actions if energy rises.
 SCF Done:  E(RwB97XD) =  -385.783422699     A.U. after   14 cycles
            NFock= 14  Conv=0.35D-08     -V/T= 2.0043
 PrsmSu:  requested number of processors reduced to:  29 ShMem   1 Linda.
[...]

 ----------------------------------------------------------------------
 1\1\GINC-BC11701\Freq\RwB97XD\6-311++G(d,p)\C10H8\HPHAM196\19-Aug-2022
 \0\\#N Geom=AllCheck Guess=TCheck SCRF=Check GenChk RwB97XD/6-311++G(d
 ,p) Freq\\Fiveseven-3.cdx\\0,1\C,0.7232306409,3.7991666398,0.\C,-0.677
 1631451,3.8190972958,0.\C,-1.0992340154,5.1520761648,0.\C,0.0088386135
 ,6.0056336818,0.\C,1.1694470805,5.2217535578,0.\C,1.5208970811,2.66426
 05871,0.\C,2.9092112213,2.5716740894,0.\C,3.8478887133,3.5993886025,0.
 \C,2.4728797139,5.6969287172,0.\C,3.6647523367,4.9796459863,0.\H,4.573
 01957,5.5742250085,0.\H,2.5712220398,6.7804836801,0.\H,-0.0136230095,7
 .0865910774,0.\H,-2.1324019123,5.4758915827,0.\H,-1.3130581432,2.94453
 03559,0.\H,0.9819160872,1.7190152917,0.\H,3.3145903064,1.564453436,0.\
 H,4.8852429111,3.2742765751,0.\\Version=ES64L-G16RevA.03\State=1-A'\HF
 =-385.7834419\RMSD=3.491e-09\RMSF=1.270e-04\ZeroPoint=0.146582\Thermal
 =0.1536999\Dipole=0.4914499,-0.154648,0.\DipoleDeriv=0.2734248,-0.0403
 851,-0.0000038,0.7994531,-0.4651219,0.0000003,0.0000102,0.0000084,0.00
 39262,-0.3757255,0.2103122,-0.0000022,0.0446792,-0.0272336,-0.0000037,
 -0.0000018,-0.0000017,-0.2318868,0.1727984,-0.0015273,-0.0000056,-0.00
 12357,0.164855,-0.0000017,0.000002,0.0000008,-0.146168,-0.3840059,0.03
 78129,0.0000113,0.2028035,-0.0208372,0.0000021,0.0000008,0.0000009,-0.
 2317659,-0.3222761,-0.0595192,0.0000085,-0.89874,0.1325854,0.0000162,-
 0.0000136,-0.0000088,0.0037312,0.5846499,0.0908504,-0.000009,-0.151912
 1,0.1978109,-0.000014,-0.0000034,-0.0000035,-0.0527708,-0.4381842,-0.2
 125012,0.0000064,-0.1266618,-0.0426845,0.0000005,-0.0000017,-0.0000007
 ,-0.1761255,0.182429,0.0452513,-0.000004,0.0464606,0.3130712,-0.000007
 7,0.000007,0.0000041,-0.073271,0.4860835,-0.2915588,-0.0000117,-0.0484
 222,0.2951653,-0.0000028,0.0000119,0.0000067,-0.0526063,-0.1493001,0.2
 872432,0.0000111,0.1995475,-0.3306642,0.0000086,-0.000007,-0.0000046,-
 0.1761411,-0.0632421,-0.0715706,0.0000027,-0.0799518,0.0053137,0.00000
 01,-0.0000012,-0.0000007,0.1421213,0.0654374,-0.0015143,-0.0000017,-0.
 0310568,-0.0922197,-0.0000009,-0.0000003,0.,0.1163385,0.0714474,-0.029
 4664,-0.0000014,0.02087,-0.0816439,-0.0000014,-0.0000005,-0.0000003,0.
 1707845,-0.0892177,0.0585062,-0.0000045,0.0583492,0.0791881,-0.0000002
 ,-0.0000003,-0.0000002,0.1511865,0.0251878,-0.0455003,-0.0000012,-0.09
 56894,-0.0358995,0.000001,-0.000001,-0.0000003,0.1707521,0.0291751,-0.
 083281,0.0000029,-0.0533863,-0.0552143,0.0000046,0.0000009,0.0000007,0
 .1166163,0.0302581,0.0543888,0.0000008,0.0626881,-0.0882386,-0.0000012
 ,-0.0000008,-0.0000004,0.1421187,-0.0989397,0.0524591,0.0000013,0.0522
 049,0.0517678,0.0000001,-0.0000012,-0.0000006,0.1231603\Polar=183.2358
 072,-18.0920048,131.3713295,-0.0000862,-0.0000393,62.4340527\Quadrupol
 e=2.9921358,3.7447755,-6.7369113,0.2619234,0.,0.\PG=CS [SG(C10H8)]\NIm
 ag=0\\0.64867006,-0.11934391,0.68171653,-0.00000032,0.00000027,0.14505
 550,-0.28785241,-0.03728193,0.00000008,0.63776217,-0.04801884,-0.08089
 760,0.00000011,0.12511941,0.74391116,0.00000007,-0.00000003,-0.0676024
 1,0.00000001,0.00000002,0.11861119,-0.00771502,0.02598072,0.00000053,-
 0.14943717,0.09197704,-0.00000002,0.79719903,0.11213953,-0.04804570,0.
 00000030,0.01276284,-0.29923892,-0.00000003,-0.07714585,0.57806639,-0.
 00000007,0.00000003,0.00608830,-0.00000002,-0.00000004,-0.06070896,-0.
 00000003,0.,0.13795910,-0.06617927,0.04637253,-0.00000057,0.06659084,-
 0.06901462,-0.00000002,-0.24758509,-0.04801564,0.00000010,0.55646318,0
 .02013926,-0.05189494,0.00000003,-0.01681121,-0.05634304,-0.00000002,-
 0.12704706,-0.20115607,0.00000003,0.00523271,0.82653769,-0.00000002,0.
 00000004,0.01096268,0.00000006,0.00000010,0.01238387,0.00000022,0.0000
 0010,-0.06073139,-0.00000034,-0.00000003,0.11876409,-0.05155027,-0.040
 21777,0.00000021,-0.09217669,0.00796590,-0.00000009,-0.08493954,-0.085
 93752,0.00000012,-0.18109086,0.11734483,-0.00000009,0.77077362,-0.0560
 0649,-0.18936925,-0.00000084,-0.01786875,-0.02560810,-0.00000003,0.000
 08091,0.02999374,0.00000015,0.10636283,-0.18837864,-0.00000048,0.05712
 210,0.55901848,0.00000048,-0.00000030,-0.06930253,0.,0.00000003,0.0110
 1558,-0.00000031,-0.00000019,0.00608253,0.00000007,-0.00000009,-0.0676
 2596,-0.00000047,0.00000015,0.14503967,-0.13058914,0.09560264,0.000000
 87,-0.08674768,0.07133186,-0.00000003,-0.02709543,-0.06777455,-0.00000
 005,0.06018995,-0.01250845,0.00000036,-0.03608780,0.00865044,-0.000000
 50,0.69058021,0.09856269,-0.29974029,0.00000015,0.04395377,-0.02097078
 ,0.00000009,0.00835154,0.03843610,-0.00000017,-0.03538012,-0.00017628,
 0.00000030,0.04681465,-0.02275110,0.00000043,-0.00740646,0.68357141,0.
 00000006,-0.00000014,-0.05594990,-0.00000011,-0.00000016,0.00412754,-0
 .00000044,-0.00000023,0.00485370,0.00000066,0.00000003,0.00012274,0.00
 000006,0.00000094,-0.00079496,-0.00000074,-0.00000048,0.14281496,-0.09
 216291,0.04539652,-0.00000040,0.06567382,-0.03366801,0.,0.01970669,0.0
 6427445,0.00000005,-0.06244318,0.00720932,-0.00000021,0.05746877,-0.01
 047209,0.00000016,-0.30962735,-0.03998975,0.00000038,0.68042057,0.0105
 3203,0.02345637,0.00000023,0.02318889,-0.01438046,-0.00000004,0.006778
 94,0.02491647,0.00000002,-0.02504384,0.00160629,0.00000004,0.02266481,
 -0.00860661,-0.00000028,0.06315231,-0.13465682,-0.00000008,-0.00234909
 ,0.68241856,0.00000012,0.00000002,0.00460820,0.00000009,0.00000014,0.0
 0814990,0.00000025,0.00000011,0.00027910,-0.00000050,-0.00000007,0.001
 05278,-0.00000022,-0.00000069,-0.00512437,0.00000042,0.00000052,-0.060
 03404,-0.00000025,-0.00000002,0.12774093,0.02455617,-0.00961137,0.0000
 0038,-0.01911620,0.01229853,-0.00000002,-0.00733302,-0.01959725,-0.000
 00003,0.01886330,-0.00380142,0.00000016,-0.01811451,0.00065543,-0.0000
 0031,-0.05411997,-0.00922930,-0.00000025,-0.21115670,-0.14033777,0.000
 00010,0.67725387,0.06187336,-0.03094652,0.00000005,-0.05839215,0.03110
 543,0.00000006,-0.01961540,-0.06367300,-0.00000009,0.06686229,-0.00690
 141,0.00000016,-0.07081562,0.01161251,0.00000028,-0.09114297,0.0545125
 1,-0.00000028,-0.03458514,-0.22998630,0.00000032,0.00374634,0.68590305
 ,-0.00000029,0.00000010,-0.00263455,-0.00000010,-0.00000017,-0.0003187
 4,-0.00000015,-0.00000004,-0.00075239,0.00000049,0.00000011,-0.0003187
 2,0.00000043,0.00000066,-0.00264995,-0.00000026,-0.00000072,0.00364726
 ,0.00000022,0.00000012,-0.06138236,-0.00000003,-0.00000043,0.14241438,
 -0.05775157,0.01570619,0.00000011,0.06299868,-0.03148647,0.00000006,0.
 02221129,0.07913910,-0.00000016,-0.11932855,-0.00283222,0.00000023,-0.
 27640976,-0.11140093,0.00000036,0.07090961,-0.03900148,-0.00000035,-0.
 08285769,-0.03684159,0.00000037,0.02849080,0.10928446,-0.00000056,0.69
 516201,-0.02242027,-0.00104481,0.00000030,-0.00853761,-0.00290679,-0.0
 0000001,0.00294393,-0.01081265,-0.00000001,0.02452756,0.01161326,0.000
 00012,-0.11433402,-0.15344430,-0.00000015,-0.00703545,0.00463956,-0.00
 000026,0.01047576,0.00443315,0.00000015,0.02738085,-0.02803389,-0.0000
 0010,-0.00116883,0.67927744,-0.00000044,0.00000024,-0.00079672,-0.0000
 0010,-0.00000019,0.00012231,-0.00000006,0.,0.00486589,0.00000051,0.000
 00013,0.00412322,0.00000058,0.00000065,-0.05593894,-0.00000012,-0.0000
 0093,-0.00236962,0.00000018,0.00000022,-0.00192062,0.00000007,-0.00000
 054,0.00364439,-0.00000073,-0.00000007,0.14276389,0.03034721,-0.016459
 30,-0.00000051,-0.03321104,0.01703404,-0.00000002,-0.01191160,-0.03866
 513,0.00000011,0.04444559,-0.00730708,-0.00000032,-0.08060982,0.026955
 00,0.00000009,-0.04197600,0.02182588,0.00000056,0.06263116,0.00088603,
 -0.00000041,-0.13508830,-0.03156813,0.00000042,-0.26400237,0.12993959,
 0.00000043,0.68387041,-0.04978135,0.01865945,-0.00000024,0.04928529,-0
 .02769645,-0.00000004,0.01887824,0.05653856,0.00000009,-0.06413621,0.0
 0684973,-0.00000021,0.06192871,0.01195085,-0.00000013,0.06909723,-0.03
 651126,0.00000040,-0.08578735,-0.05931509,-0.00000036,0.07418374,-0.30
 460386,0.00000042,0.02684304,-0.18119365,0.00000050,0.00187349,0.67878
 170,0.00000029,-0.00000014,-0.00512265,0.00000010,0.00000017,0.0010556
 5,0.00000011,0.00000004,0.00028234,-0.00000049,-0.00000010,0.00813093,
 -0.00000037,-0.00000063,0.00461094,0.00000023,0.00000073,-0.00193548,-
 0.00000019,-0.00000015,0.00620871,-0.00000004,0.00000046,-0.06143847,0
 .00000051,0.00000011,-0.06001583,-0.00000037,-0.00000043,0.12768176,0.
 00095493,0.00003956,-0.00000020,-0.00056800,0.00026119,0.,-0.00066468,
 -0.00033150,0.00000002,0.00006436,-0.00100659,-0.00000009,-0.00246069,
 0.00444915,0.00000006,-0.00083323,0.00071319,0.00000020,0.00209825,0.0
 0130198,-0.00000014,0.00464671,0.00509962,0.00000011,-0.02180565,-0.01
 673988,0.00000010,-0.25294155,-0.12763920,-0.00000011,0.26992339,-0.00
 069678,0.00056198,-0.00000004,0.00085838,-0.00034739,0.,0.00043213,0.0
 0092400,0.,-0.00085120,0.00051946,-0.00000001,0.00332406,-0.00186753,0
 .00000004,0.00146753,-0.00053597,0.00000003,0.00198592,-0.00444800,-0.
 00000001,-0.02825219,-0.01681205,0.,0.01679440,0.00986690,-0.00000002,
 -0.12784761,-0.14112700,0.,0.13310939,0.15323220,0.00000004,-0.0000000
 3,0.00041554,0.,0.,0.00007463,-0.00000004,-0.00000002,-0.00044146,0.00
 000004,0.,-0.00015812,-0.00000003,0.00000006,0.00732831,-0.00000007,0.
 ,-0.00019691,0.00000003,-0.00000002,0.00695247,-0.00000003,0.,0.003173
 87,0.00000001,-0.00000002,0.00319824,0.00000003,0.00000001,-0.03695841
 ,0.00000001,0.,0.02582617,-0.00490514,0.00100371,0.00000010,0.00054099
 ,-0.00197937,0.,0.00044857,0.00104528,-0.00000001,-0.00014777,-0.00076
 247,0.00000005,-0.00027437,-0.03276006,-0.00000003,0.00051309,-0.00046
 915,-0.00000010,-0.00114080,-0.00041066,0.00000007,-0.00368611,0.00242
 662,-0.00000007,-0.06084812,-0.02599181,-0.00000006,0.00369544,0.02880
 231,0.00000007,0.00043488,0.00060504,0.,0.06636086,-0.00120082,0.00177
 223,-0.00000018,-0.00026390,-0.00065934,0.00000003,-0.00020131,-0.0003
 2826,-0.00000003,0.00169137,0.00173019,-0.00000003,-0.00074251,-0.0113
 6289,0.00000020,-0.00034835,0.00015779,0.00000009,0.00021301,0.0006597
 8,0.,0.00328688,0.00035812,-0.00000008,-0.02399696,-0.32884115,-0.0000
 0014,-0.00450151,-0.01388192,0.00000007,0.00039421,0.00099696,0.000000
 02,0.02659729,0.35007248,0.,0.,0.00804737,0.00000001,0.00000002,-0.001
 33153,0.00000004,0.00000002,0.00046557,-0.00000007,0.,-0.00489602,-0.0
 0000004,-0.00000010,0.00721888,0.00000006,0.00000008,0.00032462,-0.000
 00004,0.,0.00005667,0.00000003,0.00000004,0.00687982,0.00000007,0.0000
 0002,-0.04391759,-0.00000007,-0.00000005,0.00625705,-0.00000002,0.,-0.
 00409780,0.00000001,0.,0.02675366,-0.00553543,0.00233878,0.00000004,-0
 .00369011,-0.00325054,0.,0.00832182,-0.02273198,-0.00000001,-0.0591979
 5,0.00634747,0.00000003,0.00631539,0.02399922,0.00000002,0.00176242,0.
 00069871,-0.00000006,-0.00054256,-0.00044239,0.00000006,0.00027301,0.0
 0064745,-0.00000007,0.00104164,0.00087739,-0.00000007,0.00045948,-0.00
 092285,0.00000007,-0.00003861,-0.00001585,0.,-0.00042444,-0.00080830,0
 .,0.05033637,0.00155552,-0.00055520,0.00000004,-0.00198784,-0.00112384
 ,0.,0.00654121,-0.00769531,-0.00000001,0.00646433,-0.35009280,0.000000
 04,-0.00543071,-0.00809615,0.00000001,-0.00029598,-0.00082064,-0.00000
 006,-0.00031140,0.00012519,0.00000006,0.00016858,0.00023214,-0.0000000
 7,-0.00090073,0.00044028,-0.00000007,0.00025710,-0.00012169,0.00000007
 ,0.00007610,-0.00001810,0.,0.00075447,0.00020050,0.,-0.00706317,0.3678
 4188,0.00000001,-0.00000001,0.00388551,0.,-0.00000001,0.00412260,-0.00
 000003,-0.00000002,0.00076044,0.00000005,0.,-0.02744023,-0.00000001,0.
 00000007,0.00077070,-0.00000006,-0.00000003,0.00170549,0.00000003,0.,-
 0.00000168,-0.00000002,-0.00000002,0.00053926,-0.00000001,-0.00000002,
 -0.00315471,0.00000004,0.00000003,-0.00018143,0.00000002,0.,-0.0000036
 7,0.,0.00000001,0.00029120,0.,0.,0.02123428,0.00015455,0.00046008,0.00
 000008,-0.00136819,-0.00294104,0.00000002,-0.32142638,0.08135450,-0.00
 000006,-0.01085482,0.01207450,0.00000010,-0.00335608,-0.00248484,0.000
 00011,-0.00037719,0.00004990,-0.00000017,0.00028452,0.00032312,0.00000
 017,-0.00000693,-0.00039007,-0.00000023,-0.00004275,0.00085185,-0.0000
 0029,-0.00054855,0.00004219,0.00000023,-0.00010176,0.00005086,0.,0.000
 01518,-0.00003977,0.00000003,0.00044561,-0.00041186,0.,0.33716120,0.00
 257967,-0.00623180,0.00000008,0.02570285,0.00228170,0.,0.08133074,-0.0
 8733476,0.,-0.01655694,0.01174176,0.00000002,-0.00459049,-0.00274136,-
 0.00000007,0.00037721,0.00124763,-0.00000005,0.00124603,-0.00002328,0.
 00000002,-0.00039093,-0.00113320,0.00000001,0.00053183,0.00091515,0.00
 000004,-0.00087945,0.00081373,-0.00000002,-0.00009395,0.00005817,0.,0.
 00006383,0.00001319,0.,0.00106506,0.00023510,0.,-0.08953746,0.07953869
 ,0.,-0.00000001,0.00680057,-0.00000001,-0.00000002,0.00349085,-0.00000
 004,-0.00000002,-0.03971017,0.00000006,0.,0.00346884,0.00000001,0.0000
 0008,0.00678132,-0.00000006,-0.00000004,0.00038527,0.00000003,0.,-0.00
 133733,-0.00000002,-0.00000003,0.00023985,-0.00000003,-0.00000002,0.00
 038646,0.00000005,0.00000004,-0.00133445,0.00000002,0.,-0.00003465,0.,
 0.,0.00045364,0.,0.,-0.00285089,-0.00000002,0.,0.02545603,-0.00710042,
 -0.02468432,-0.00000004,-0.16010084,-0.13838913,0.00000001,0.01072560,
 0.00990787,-0.00000002,-0.00038927,0.00275712,0.00000001,-0.00577852,0
 .00125921,0.00000008,0.00088274,-0.00116286,0.,0.00059102,0.00042788,0
 .00000003,-0.00012565,-0.00040672,-0.00000007,0.00074071,-0.00178745,-
 0.00000010,0.00003115,0.00051409,0.00000006,-0.00004876,0.00002079,0.,
 -0.00048196,-0.00019618,0.,0.00072064,0.00034706,0.,0.00007268,-0.0009
 5482,0.,0.16049777,0.00471191,0.00528988,-0.00000020,-0.13851664,-0.24
 898777,0.00000002,-0.01933563,-0.01007792,0.,0.00147367,-0.00440497,-0
 .00000007,0.00205333,-0.00034955,0.00000015,0.00061786,0.00062878,0.00
 000014,-0.00074680,-0.00024532,-0.00000006,0.00007913,0.00062811,0.,-0
 .00078221,0.00020993,-0.00000004,0.00037660,-0.00044519,0.,-0.00001861
 ,-0.00001136,0.00000002,0.00004472,0.00010901,0.,-0.00113249,-0.000405
 39,0.00000001,0.00053171,0.00060658,0.00000001,0.15118120,0.25745839,0
 .00000002,-0.00000002,0.00077650,0.,0.00000001,-0.02741132,0.00000001,
 0.,0.00077439,-0.00000003,-0.00000001,0.00412519,-0.00000006,-0.000000
 05,0.00387001,0.,0.00000007,-0.00314934,-0.00000002,0.,-0.00017948,0.0
 0000002,0.00000003,0.00053907,0.00000008,0.,0.00170676,-0.00000005,-0.
 00000003,-0.00000359,0.,0.,-0.00016633,0.,0.00000001,-0.00064644,0.,0.
 ,0.00111753,0.00000003,0.,-0.00285825,0.,0.,0.02119965,0.01183202,0.01
 662941,-0.00000019,0.00002982,0.00195427,0.,-0.00019727,-0.00113130,0.
 00000002,0.00119420,0.00068596,-0.00000010,-0.00262964,0.00205596,0.00
 000008,-0.12504755,-0.11594884,0.00000018,-0.01342672,-0.02909023,-0.0
 0000012,-0.00505854,0.00135533,0.00000010,0.00078108,0.00003330,0.0000
 0008,-0.00045639,0.00119150,-0.00000009,0.00002202,-0.00012273,0.00000
 001,0.00011226,-0.00000491,-0.00000002,-0.00021685,0.00018239,0.000000
 01,0.00000369,-0.00005796,0.00000002,-0.00019593,-0.00048065,0.,0.1341
 5162,-0.01537841,-0.02344970,-0.00000018,-0.00050829,0.00153991,-0.000
 00002,0.00011435,0.00032601,0.00000005,-0.00102969,-0.00131829,-0.0000
 0013,0.00425659,-0.00049664,0.,-0.11791474,-0.26452182,0.00000023,0.00
 419858,0.00324224,-0.00000019,0.00047106,0.00171640,0.00000020,-0.0000
 8592,-0.00011215,0.00000022,0.00056682,-0.00001948,-0.00000020,-0.0000
 6716,0.00001894,0.00000001,-0.00014772,-0.00010632,-0.00000003,0.00042
 140,-0.00015283,0.00000002,0.00004681,0.00002541,0.00000002,0.00108735
 ,-0.00002565,-0.00000002,0.12371519,0.28213498,-0.00000003,0.00000002,
 0.00721247,0.,0.,-0.00490829,0.00000002,0.00000002,0.00046882,0.,0.,-0
 .00132761,0.00000004,-0.00000001,0.00805215,0.00000003,-0.00000003,-0.
 04394257,0.,0.00000002,0.00623448,0.00000001,-0.00000002,0.00684984,-0
 .00000002,0.00000001,0.00031964,0.,0.,0.00005862,0.,0.,-0.00061836,0.,
 -0.00000001,-0.00053505,0.,0.,-0.00064818,0.,0.,0.00045498,0.,-0.00000
 001,0.00028850,0.,0.,0.02681281,-0.00594071,-0.00164085,0.00000002,0.0
 0109600,0.00061349,-0.00000001,-0.00019708,0.00111509,0.00000001,-0.00
 102620,0.00020738,-0.00000001,0.00113765,-0.00043579,-0.00000005,-0.01
 147119,0.03162711,0.,-0.09652441,0.09648006,-0.00000002,0.00852264,-0.
 02272907,0.00000005,-0.00176795,0.00013661,0.00000006,-0.00158398,-0.0
 0330476,-0.00000004,-0.00004448,-0.00085267,0.,0.00011138,0.00000398,0
 .,-0.00003765,0.00003683,0.,-0.00002955,0.00015554,0.,-0.00005886,-0.0
 0004667,0.,0.00017227,0.00020125,0.,0.10683351,-0.00050219,0.00158309,
 0.00000004,0.00045414,-0.00050056,0.,0.00034624,0.00044929,0.,-0.00038
 612,0.00010618,0.00000003,0.00029532,0.00038611,0.,-0.00191370,-0.0004
 6209,-0.00000006,0.09670291,-0.29709484,0.00000005,0.01062113,-0.02067
 229,-0.00000005,-0.00061593,0.00038637,-0.00000005,-0.00399401,-0.0007
 6872,0.00000005,0.00011628,-0.00110284,0.,0.00006015,-0.00006991,0.,-0
 .00000233,-0.00002265,0.,0.00001009,-0.00001449,0.,0.00004518,0.000003
 57,0.,-0.00001536,0.00127742,0.,-0.10075138,0.31585562,0.00000003,-0.0
 0000001,0.00730635,0.,0.,-0.00015715,0.,0.,-0.00044073,-0.00000002,0.,
 0.00007515,-0.00000004,-0.00000003,0.00041692,0.,0.00000005,0.00319202
 ,0.,-0.00000001,-0.03703033,0.,0.00000003,0.00318164,0.00000005,0.,-0.
 00019689,-0.00000002,-0.00000002,0.00697169,0.,0.,0.00012217,0.,0.0000
 0001,-0.00062325,0.,0.,-0.00016639,0.00000002,0.,-0.00003489,0.,0.,-0.
 00000299,0.,0.,-0.00407441,0.,0.,0.02589169,0.00076735,-0.00029068,-0.
 00000019,-0.00042398,0.00019228,0.00000002,-0.00011074,-0.00040793,0.0
 0000001,0.00043155,0.00007795,-0.00000007,-0.00021689,-0.00016129,0.00
 000015,-0.00086549,-0.00400947,0.00000012,-0.01899248,0.00877951,-0.00
 000003,-0.30880058,0.07834981,0.,0.00247860,0.00084848,-0.00000004,-0.
 00315082,-0.00106812,0.00000003,0.00136288,-0.00000947,0.00000001,-0.0
 0032395,0.00011778,-0.00000001,0.00000723,0.00001811,0.,-0.00002524,0.
 00000925,0.,0.00001792,-0.00001042,-0.00000001,-0.00107009,0.00005253,
 0.,0.00080861,-0.00047041,0.,0.32810611,0.00125508,-0.00086373,0.00000
 009,-0.00115726,0.00082283,-0.00000001,-0.00041072,-0.00128797,0.,0.00
 142710,-0.00003811,0.00000002,-0.00170167,0.00011043,-0.00000008,-0.00
 395641,-0.00204671,-0.00000004,-0.02379288,0.00789867,0.,0.07832856,-0
 .08330576,0.00000003,0.00081426,-0.00539265,0.00000005,0.03150767,-0.0
 0790973,-0.00000003,0.00033622,0.00009163,0.,0.00111783,-0.00082046,0.
 ,-0.00002557,0.00002951,0.,0.00000942,0.00000176,0.,0.00003374,0.00001
 886,0.,-0.00095131,-0.00007842,0.,-0.00081614,0.00066073,0.,-0.0820179
 2,0.09210911,0.00000003,-0.00000003,0.00024975,-0.00000001,-0.00000001
 ,-0.00071572,-0.00000006,-0.00000003,-0.00009508,0.00000007,0.,-0.0007
 1143,-0.00000003,0.00000010,0.00024972,-0.00000010,-0.00000002,0.00719
 923,0.00000004,-0.00000002,0.00572697,-0.00000002,-0.00000002,-0.04161
 420,0.,-0.00000004,0.00718015,0.00000004,0.00000003,0.00573262,0.00000
 002,0.,-0.00441570,-0.00000001,0.00000002,-0.00070080,0.,0.,0.00002017
 ,0.,0.,0.00024282,0.,0.00000002,0.00002012,0.00000002,0.00000002,-0.00
 069784,0.,0.,-0.00443057,0.,0.,0.02675978\\0.00019073,0.00026521,0.,-0
 .00007177,-0.00005307,0.,0.00010961,-0.00024776,0.,0.00004496,0.000525
 90,0.,0.00000803,-0.00041559,0.,-0.00010432,-0.00010345,0.,0.00015987,
 0.00010819,0.,-0.00027729,-0.00014260,0.,-0.00000718,0.00007022,0.,0.0
 0007748,0.00016606,0.,-0.00003115,0.00001452,0.,-0.00001505,-0.0000251
 6,0.,-0.00000639,-0.00001465,0.,-0.00007442,0.00000049,0.,-0.00002436,
 -0.00004295,0.,-0.00007593,-0.00002218,0.,-0.00000670,-0.00009605,0.,0
 .00010387,0.00001288,0.\\\@


 SUCCESS IS COUNTED SWEETEST
 BY THOSE WHO NE'ER SUCCEED.
 TO COMPREHEND NECTAR
 REQUIRES SOREST NEED.
           EMILY DICKINSON
 Job cpu time:       0 days  1 hours 27 minutes  0.3 seconds.
 Elapsed time:       0 days  0 hours  2 minutes 17.7 seconds.
 File lengths (MBytes):  RWF=    118 Int=      0 D2E=      0 Chk=      7 Scr=      1
 Normal termination of Gaussian 16 at Fri Aug 19 09:35:19 2022.
