 Entering Gaussian System, Link 0=g16
 Initial command:
 /project/6004141/group/g16/g16/l1.exe "/scratch/hpham196/GaussianScratch/Gau-209890.inp" -scrdir="/scratch/hpham196/GaussianScratch/"
 Entering Link 1 = /project/6004141/group/g16/g16/l1.exe PID=    209892.
  
 Copyright (c) 1988,1990,1992,1993,1995,1998,2003,2009,2016,
            Gaussian, Inc.  All Rights Reserved.
  
 This is part of the Gaussian(R) 16 program.  It is based on
 the Gaussian(R) 09 system (copyright 2009, Gaussian, Inc.),
 the Gaussian(R) 03 system (copyright 2003, Gaussian, Inc.),
 the Gaussian(R) 98 system (copyright 1998, Gaussian, Inc.),
 the Gaussian(R) 94 system (copyright 1995, Gaussian, Inc.),
 the Gaussian 92(TM) system (copyright 1992, Gaussian, Inc.),
 the Gaussian 90(TM) system (copyright 1990, Gaussian, Inc.),
 the Gaussian 88(TM) system (copyright 1988, Gaussian, Inc.),
 the Gaussian 86(TM) system (copyright 1986, Carnegie Mellon
 University), and the Gaussian 82(TM) system (copyright 1983,
 Carnegie Mellon University). Gaussian is a federally registered
 trademark of Gaussian, Inc.
  
 This software contains proprietary and confidential information,
 including trade secrets, belonging to Gaussian, Inc.
  
 This software is provided under written license and may be
 used, copied, transmitted, or stored only in accord with that
 written license.
  
 The following legend is applicable only to US Government
 contracts under FAR:
  
                    RESTRICTED RIGHTS LEGEND
  
 Use, reproduction and disclosure by the US Government is
 subject to restrictions as set forth in subparagraphs (a)
 and (c) of the Commercial Computer Software - Restricted
 Rights clause in FAR 52.227-19.
  
 Gaussian, Inc.
 340 Quinnipiac St., Bldg. 40, Wallingford CT 06492
  
  
 ---------------------------------------------------------------
 Warning -- This program may not be used in any manner that
 competes with the business of Gaussian, Inc. or will provide
 assistance to any competitor of Gaussian, Inc.  The licensee
 of this program is prohibited from giving any competitor of
 Gaussian, Inc. access to this program.  By using this program,
 the user acknowledges that Gaussian, Inc. is engaged in the
 business of creating and licensing software in the field of
 computational chemistry and represents and warrants to the
 licensee that it is not a competitor of Gaussian, Inc. and that
 it will not use this program in any manner prohibited above.
 ---------------------------------------------------------------
  

 Cite this work as:
 Gaussian 16, Revision A.03,
 M. J. Frisch, G. W. Trucks, H. B. Schlegel, G. E. Scuseria, 
 M. A. Robb, J. R. Cheeseman, G. Scalmani, V. Barone, 
 G. A. Petersson, H. Nakatsuji, X. Li, M. Caricato, A. V. Marenich, 
 J. Bloino, B. G. Janesko, R. Gomperts, B. Mennucci, H. P. Hratchian, 
 J. V. Ortiz, A. F. Izmaylov, J. L. Sonnenberg, D. Williams-Young, 
 F. Ding, F. Lipparini, F. Egidi, J. Goings, B. Peng, A. Petrone, 
 T. Henderson, D. Ranasinghe, V. G. Zakrzewski, J. Gao, N. Rega, 
 G. Zheng, W. Liang, M. Hada, M. Ehara, K. Toyota, R. Fukuda, 
 J. Hasegawa, M. Ishida, T. Nakajima, Y. Honda, O. Kitao, H. Nakai, 
 T. Vreven, K. Throssell, J. A. Montgomery, Jr., J. E. Peralta, 
 F. Ogliaro, M. J. Bearpark, J. J. Heyd, E. N. Brothers, K. N. Kudin, 
 V. N. Staroverov, T. A. Keith, R. Kobayashi, J. Normand, 
 K. Raghavachari, A. P. Rendell, J. C. Burant, S. S. Iyengar, 
 J. Tomasi, M. Cossi, J. M. Millam, M. Klene, C. Adamo, R. Cammi, 
 J. W. Ochterski, R. L. Martin, K. Morokuma, O. Farkas, 
 J. B. Foresman, and D. J. Fox, Gaussian, Inc., Wallingford CT, 2016.
 
 ******************************************
 Gaussian 16:  ES64L-G16RevA.03 25-Dec-2016
                 8-Sep-2022 
 ******************************************
 %NProcShared=40
 Will use up to   40 processors via shared memory.
 %chk=coranene_IRC_2.chk
 -------------------------------------------------
 # opt freq wb97xd/6-311++g(d,p) geom=connectivity
 -------------------------------------------------
 1/18=20,19=15,26=3,38=1,57=2/1,3;
 2/9=110,12=2,17=6,18=5,40=1/2;
 3/5=4,6=6,7=1111,11=2,25=1,30=1,71=1,74=-58/1,2,3;
 4//1;
 5/5=2,38=5/2;
 6/7=2,8=2,9=2,10=2,28=1/1;
 7//1,2,3,16;
 1/18=20,19=15,26=3/3(2);
 2/9=110/2;
 99//99;
 2/9=110/2;
 3/5=4,6=6,7=1111,11=2,25=1,30=1,71=1,74=-58/1,2,3;
 4/5=5,16=3,69=1/1;
 5/5=2,38=5/2;
 7//1,2,3,16;
 1/18=20,19=15,26=3/3(-5);
 2/9=110/2;
 6/7=2,8=2,9=2,10=2,19=2,28=1/1;
 99/9=1/99;
 ------------
 coranene.cdx
 ------------
 Symbolic Z-matrix:
 Charge =  0 Multiplicity = 1
 C                    -1.23351  -0.71218  -0.01464 
 C                    -1.23352   0.71217   0.01473 
 C                    0.         1.42434  -0.01576 
 C                     1.23351   0.71218   0.01463 
 C                     1.23352  -0.71217  -0.01474 
 C                     0.       -1.42434   0.01573 
 C                     2.45275  -1.41609   0.00115 
 C                     2.42546  -2.83796  -0.00256 
 C                     1.24506  -3.51947  -0.00168 
 C                     0.00001  -2.83218   0.00029 
 C                    -2.45274  -1.41611   0.0013 
 C                    -3.67048  -0.68153  -0.00066 
 C                    -3.67048   0.6815    0.00023 
 C                    -2.45275   1.41609  -0.00117 
 C                    -0.00001   2.83218  -0.00033 
 C                     1.24503   3.51949   0.00197 
 C                     2.42544   2.83798   0.00285 
 C                     2.45274   1.41611  -0.00131 
 C                    -2.42546   2.83795   0.00264 
 C                    -1.24506   3.51947   0.00176 
 C                     3.67048   0.68153   0.00065 
 C                     3.67048  -0.6815   -0.00023 
 C                    -1.24503  -3.51949  -0.00189 
 C                    -2.42544  -2.83798  -0.00278 
 H                    -1.24112  -4.60463  -0.02643 
 H                    -3.36715  -3.37721  -0.02627 
 H                    -4.60826  -1.22749  -0.0021 
 H                    -4.60827   1.22746  -0.00279 
 H                    -3.36718   3.37716   0.02477 
 H                    -1.24114   4.60461   0.02488 
 H                     1.24112   4.60463   0.02731 
 H                     3.36716   3.37721   0.02714 
 H                     4.60826   1.2275    0.00199 
 H                     4.60827  -1.22746   0.00269 
 H                     3.36718  -3.37716  -0.02388 
 H                     1.24114  -4.60461  -0.02399 
 

 GradGradGradGradGradGradGradGradGradGradGradGradGradGradGradGradGradGrad
 Berny optimization.
 Initialization pass.
                           ----------------------------
                           !    Initial Parameters    !
                           ! (Angstroms and Degrees)  !
 --------------------------                            --------------------------
 ! Name  Definition              Value          Derivative Info.                !
 --------------------------------------------------------------------------------
 ! R1    R(1,2)                  1.4246         estimate D2E/DX2                !
 ! R2    R(1,6)                  1.4247         estimate D2E/DX2                !
 ! R3    R(1,11)                 1.4079         estimate D2E/DX2                !
 ! R4    R(2,3)                  1.4247         estimate D2E/DX2                !
 ! R5    R(2,14)                 1.4079         estimate D2E/DX2                !
 ! R6    R(3,4)                  1.4247         estimate D2E/DX2                !
 ! R7    R(3,15)                 1.4079         estimate D2E/DX2                !
 ! R8    R(4,5)                  1.4246         estimate D2E/DX2                !
 ! R9    R(4,18)                 1.4079         estimate D2E/DX2                !
 ! R10   R(5,6)                  1.4247         estimate D2E/DX2                !
 ! R11   R(5,7)                  1.4079         estimate D2E/DX2                !
 ! R12   R(6,10)                 1.4079         estimate D2E/DX2                !
 ! R13   R(7,8)                  1.4221         estimate D2E/DX2                !
 ! R14   R(7,22)                 1.4221         estimate D2E/DX2                !
 ! R15   R(8,9)                  1.363          estimate D2E/DX2                !
 ! R16   R(8,35)                 1.0854         estimate D2E/DX2                !
 ! R17   R(9,10)                 1.4222         estimate D2E/DX2                !
 ! R18   R(9,36)                 1.0854         estimate D2E/DX2                !
 ! R19   R(10,23)                1.4222         estimate D2E/DX2                !
 ! R20   R(11,12)                1.4221         estimate D2E/DX2                !
 ! R21   R(11,24)                1.4221         estimate D2E/DX2                !
 ! R22   R(12,13)                1.363          estimate D2E/DX2                !
 ! R23   R(12,27)                1.0851         estimate D2E/DX2                !
 ! R24   R(13,14)                1.4221         estimate D2E/DX2                !
 ! R25   R(13,28)                1.0851         estimate D2E/DX2                !
 ! R26   R(14,19)                1.4221         estimate D2E/DX2                !
 ! R27   R(15,16)                1.4222         estimate D2E/DX2                !
 ! R28   R(15,20)                1.4222         estimate D2E/DX2                !
 ! R29   R(16,17)                1.363          estimate D2E/DX2                !
 ! R30   R(16,31)                1.0854         estimate D2E/DX2                !
 ! R31   R(17,18)                1.4221         estimate D2E/DX2                !
 ! R32   R(17,32)                1.0854         estimate D2E/DX2                !
 ! R33   R(18,21)                1.4221         estimate D2E/DX2                !
 ! R34   R(19,20)                1.363          estimate D2E/DX2                !
 ! R35   R(19,29)                1.0854         estimate D2E/DX2                !
 ! R36   R(20,30)                1.0854         estimate D2E/DX2                !
 ! R37   R(21,22)                1.363          estimate D2E/DX2                !
 ! R38   R(21,33)                1.0851         estimate D2E/DX2                !
 ! R39   R(22,34)                1.0851         estimate D2E/DX2                !
 ! R40   R(23,24)                1.363          estimate D2E/DX2                !
 ! R41   R(23,25)                1.0854         estimate D2E/DX2                !
 ! R42   R(24,26)                1.0854         estimate D2E/DX2                !
 ! A1    A(2,1,6)              119.956          estimate D2E/DX2                !
 ! A2    A(2,1,11)             119.9756         estimate D2E/DX2                !
 ! A3    A(6,1,11)             119.9747         estimate D2E/DX2                !
 ! A4    A(1,2,3)              119.9561         estimate D2E/DX2                !
 ! A5    A(1,2,14)             119.9754         estimate D2E/DX2                !
 ! A6    A(3,2,14)             119.9745         estimate D2E/DX2                !
 ! A7    A(2,3,4)              119.9552         estimate D2E/DX2                !
 ! A8    A(2,3,15)             119.9747         estimate D2E/DX2                !
 ! A9    A(4,3,15)             119.9747         estimate D2E/DX2                !
 ! A10   A(3,4,5)              119.956          estimate D2E/DX2                !
 ! A11   A(3,4,18)             119.9747         estimate D2E/DX2                !
 ! A12   A(5,4,18)             119.9756         estimate D2E/DX2                !
 ! A13   A(4,5,6)              119.9561         estimate D2E/DX2                !
 ! A14   A(4,5,7)              119.9754         estimate D2E/DX2                !
 ! A15   A(6,5,7)              119.9746         estimate D2E/DX2                !
 ! A16   A(1,6,5)              119.9553         estimate D2E/DX2                !
 ! A17   A(1,6,10)             119.9747         estimate D2E/DX2                !
 ! A18   A(5,6,10)             119.9747         estimate D2E/DX2                !
 ! A19   A(5,7,8)              118.8964         estimate D2E/DX2                !
 ! A20   A(5,7,22)             118.8975         estimate D2E/DX2                !
 ! A21   A(8,7,22)             122.199          estimate D2E/DX2                !
 ! A22   A(7,8,9)              121.0993         estimate D2E/DX2                !
 ! A23   A(7,8,35)             118.6923         estimate D2E/DX2                !
 ! A24   A(9,8,35)             120.1997         estimate D2E/DX2                !
 ! A25   A(8,9,10)             121.1002         estimate D2E/DX2                !
 ! A26   A(8,9,36)             120.1989         estimate D2E/DX2                !
 ! A27   A(10,9,36)            118.6882         estimate D2E/DX2                !
 ! A28   A(6,10,9)             118.8989         estimate D2E/DX2                !
 ! A29   A(6,10,23)            118.8992         estimate D2E/DX2                !
 ! A30   A(9,10,23)            122.1999         estimate D2E/DX2                !
 ! A31   A(1,11,12)            118.8969         estimate D2E/DX2                !
 ! A32   A(1,11,24)            118.8962         estimate D2E/DX2                !
 ! A33   A(12,11,24)           122.1991         estimate D2E/DX2                !
 ! A34   A(11,12,13)           121.0998         estimate D2E/DX2                !
 ! A35   A(11,12,27)           118.693          estimate D2E/DX2                !
 ! A36   A(13,12,27)           120.2071         estimate D2E/DX2                !
 ! A37   A(12,13,14)           121.0997         estimate D2E/DX2                !
 ! A38   A(12,13,28)           120.207          estimate D2E/DX2                !
 ! A39   A(14,13,28)           118.6926         estimate D2E/DX2                !
 ! A40   A(2,14,13)            118.8974         estimate D2E/DX2                !
 ! A41   A(2,14,19)            118.8964         estimate D2E/DX2                !
 ! A42   A(13,14,19)           122.1989         estimate D2E/DX2                !
 ! A43   A(3,15,16)            118.8993         estimate D2E/DX2                !
 ! A44   A(3,15,20)            118.8989         estimate D2E/DX2                !
 ! A45   A(16,15,20)           122.1999         estimate D2E/DX2                !
 ! A46   A(15,16,17)           121.0999         estimate D2E/DX2                !
 ! A47   A(15,16,31)           118.6879         estimate D2E/DX2                !
 ! A48   A(17,16,31)           120.196          estimate D2E/DX2                !
 ! A49   A(16,17,18)           121.0993         estimate D2E/DX2                !
 ! A50   A(16,17,32)           120.197          estimate D2E/DX2                !
 ! A51   A(18,17,32)           118.6923         estimate D2E/DX2                !
 ! A52   A(4,18,17)            118.8961         estimate D2E/DX2                !
 ! A53   A(4,18,21)            118.8969         estimate D2E/DX2                !
 ! A54   A(17,18,21)           122.1991         estimate D2E/DX2                !
 ! A55   A(14,19,20)           121.0993         estimate D2E/DX2                !
 ! A56   A(14,19,29)           118.6921         estimate D2E/DX2                !
 ! A57   A(20,19,29)           120.1992         estimate D2E/DX2                !
 ! A58   A(15,20,19)           121.1001         estimate D2E/DX2                !
 ! A59   A(15,20,30)           118.6879         estimate D2E/DX2                !
 ! A60   A(19,20,30)           120.1984         estimate D2E/DX2                !
 ! A61   A(18,21,22)           121.0998         estimate D2E/DX2                !
 ! A62   A(18,21,33)           118.693          estimate D2E/DX2                !
 ! A63   A(22,21,33)           120.2072         estimate D2E/DX2                !
 ! A64   A(7,22,21)            121.0997         estimate D2E/DX2                !
 ! A65   A(7,22,34)            118.6927         estimate D2E/DX2                !
 ! A66   A(21,22,34)           120.207          estimate D2E/DX2                !
 ! A67   A(10,23,24)           121.0999         estimate D2E/DX2                !
 ! A68   A(10,23,25)           118.6881         estimate D2E/DX2                !
 ! A69   A(24,23,25)           120.1966         estimate D2E/DX2                !
 ! A70   A(11,24,23)           121.0993         estimate D2E/DX2                !
 ! A71   A(11,24,26)           118.6926         estimate D2E/DX2                !
 ! A72   A(23,24,26)           120.1975         estimate D2E/DX2                !
 ! D1    D(6,1,2,3)              4.188          estimate D2E/DX2                !
 ! D2    D(6,1,2,14)          -179.337          estimate D2E/DX2                !
 ! D3    D(11,1,2,3)          -179.3339         estimate D2E/DX2                !
 ! D4    D(11,1,2,14)           -2.8589         estimate D2E/DX2                !
 ! D5    D(2,1,6,5)             -4.1874         estimate D2E/DX2                !
 ! D6    D(2,1,6,10)           179.3623         estimate D2E/DX2                !
 ! D7    D(11,1,6,5)           179.3345         estimate D2E/DX2                !
 ! D8    D(11,1,6,10)            2.8841         estimate D2E/DX2                !
 ! D9    D(2,1,11,12)            2.1861         estimate D2E/DX2                !
 ! D10   D(2,1,11,24)         -178.8076         estimate D2E/DX2                !
 ! D11   D(6,1,11,12)          178.6635         estimate D2E/DX2                !
 ! D12   D(6,1,11,24)           -2.3301         estimate D2E/DX2                !
 ! D13   D(1,2,3,4)             -4.1886         estimate D2E/DX2                !
 ! D14   D(1,2,3,15)           179.3618         estimate D2E/DX2                !
 ! D15   D(14,2,3,4)           179.3364         estimate D2E/DX2                !
 ! D16   D(14,2,3,15)            2.8869         estimate D2E/DX2                !
 ! D17   D(1,2,14,13)            2.1583         estimate D2E/DX2                !
 ! D18   D(1,2,14,19)         -178.7954         estimate D2E/DX2                !
 ! D19   D(3,2,14,13)          178.6326         estimate D2E/DX2                !
 ! D20   D(3,2,14,19)           -2.3211         estimate D2E/DX2                !
 ! D21   D(2,3,4,5)              4.1886         estimate D2E/DX2                !
 ! D22   D(2,3,4,18)          -179.334          estimate D2E/DX2                !
 ! D23   D(15,3,4,5)          -179.3618         estimate D2E/DX2                !
 ! D24   D(15,3,4,18)           -2.8844         estimate D2E/DX2                !
 ! D25   D(2,3,15,16)          178.4632         estimate D2E/DX2                !
 ! D26   D(2,3,15,20)           -2.0287         estimate D2E/DX2                !
 ! D27   D(4,3,15,16)            2.0144         estimate D2E/DX2                !
 ! D28   D(4,3,15,20)         -178.4776         estimate D2E/DX2                !
 ! D29   D(3,4,5,6)             -4.188          estimate D2E/DX2                !
 ! D30   D(3,4,5,7)            179.3363         estimate D2E/DX2                !
 ! D31   D(18,4,5,6)           179.3346         estimate D2E/DX2                !
 ! D32   D(18,4,5,7)             2.8589         estimate D2E/DX2                !
 ! D33   D(3,4,18,17)            2.3351         estimate D2E/DX2                !
 ! D34   D(3,4,18,21)         -178.6633         estimate D2E/DX2                !
 ! D35   D(5,4,18,17)          178.8118         estimate D2E/DX2                !
 ! D36   D(5,4,18,21)           -2.1866         estimate D2E/DX2                !
 ! D37   D(4,5,6,1)              4.1874         estimate D2E/DX2                !
 ! D38   D(4,5,6,10)          -179.3623         estimate D2E/DX2                !
 ! D39   D(7,5,6,1)           -179.3369         estimate D2E/DX2                !
 ! D40   D(7,5,6,10)            -2.8866         estimate D2E/DX2                !
 ! D41   D(4,5,7,8)            178.7911         estimate D2E/DX2                !
 ! D42   D(4,5,7,22)            -2.1578         estimate D2E/DX2                !
 ! D43   D(6,5,7,8)              2.3161         estimate D2E/DX2                !
 ! D44   D(6,5,7,22)          -178.6328         estimate D2E/DX2                !
 ! D45   D(1,6,10,9)           178.4834         estimate D2E/DX2                !
 ! D46   D(1,6,10,23)           -2.0194         estimate D2E/DX2                !
 ! D47   D(5,6,10,9)             2.0338         estimate D2E/DX2                !
 ! D48   D(5,6,10,23)         -178.469          estimate D2E/DX2                !
 ! D49   D(5,7,8,9)             -0.9551         estimate D2E/DX2                !
 ! D50   D(5,7,8,35)           177.9777         estimate D2E/DX2                !
 ! D51   D(22,7,8,9)          -179.9733         estimate D2E/DX2                !
 ! D52   D(22,7,8,35)           -1.0406         estimate D2E/DX2                !
 ! D53   D(5,7,22,21)            0.8468         estimate D2E/DX2                !
 ! D54   D(5,7,22,34)         -179.4367         estimate D2E/DX2                !
 ! D55   D(8,7,22,21)          179.8651         estimate D2E/DX2                !
 ! D56   D(8,7,22,34)           -0.4184         estimate D2E/DX2                !
 ! D57   D(7,8,9,10)             0.127          estimate D2E/DX2                !
 ! D58   D(7,8,9,36)           178.8124         estimate D2E/DX2                !
 ! D59   D(35,8,9,10)         -178.7897         estimate D2E/DX2                !
 ! D60   D(35,8,9,36)           -0.1043         estimate D2E/DX2                !
 ! D61   D(8,9,10,6)            -0.6696         estimate D2E/DX2                !
 ! D62   D(8,9,10,23)          179.8506         estimate D2E/DX2                !
 ! D63   D(36,9,10,6)         -179.3744         estimate D2E/DX2                !
 ! D64   D(36,9,10,23)           1.1458         estimate D2E/DX2                !
 ! D65   D(6,10,23,24)           0.6596         estimate D2E/DX2                !
 ! D66   D(6,10,23,25)         179.2404         estimate D2E/DX2                !
 ! D67   D(9,10,23,24)        -179.8606         estimate D2E/DX2                !
 ! D68   D(9,10,23,25)          -1.2797         estimate D2E/DX2                !
 ! D69   D(1,11,12,13)          -0.8755         estimate D2E/DX2                !
 ! D70   D(1,11,12,27)         179.172          estimate D2E/DX2                !
 ! D71   D(24,11,12,13)       -179.8474         estimate D2E/DX2                !
 ! D72   D(24,11,12,27)          0.2            estimate D2E/DX2                !
 ! D73   D(1,11,24,23)           0.9739         estimate D2E/DX2                !
 ! D74   D(1,11,24,26)        -177.8444         estimate D2E/DX2                !
 ! D75   D(12,11,24,23)        179.9459         estimate D2E/DX2                !
 ! D76   D(12,11,24,26)          1.1275         estimate D2E/DX2                !
 ! D77   D(11,12,13,14)          0.2027         estimate D2E/DX2                !
 ! D78   D(11,12,13,28)        179.9083         estimate D2E/DX2                !
 ! D79   D(27,12,13,14)       -179.8454         estimate D2E/DX2                !
 ! D80   D(27,12,13,28)         -0.1399         estimate D2E/DX2                !
 ! D81   D(12,13,14,2)          -0.8474         estimate D2E/DX2                !
 ! D82   D(12,13,14,19)       -179.8607         estimate D2E/DX2                !
 ! D83   D(28,13,14,2)         179.4427         estimate D2E/DX2                !
 ! D84   D(28,13,14,19)          0.4294         estimate D2E/DX2                !
 ! D85   D(2,14,19,20)           0.9596         estimate D2E/DX2                !
 ! D86   D(2,14,19,29)        -177.9287         estimate D2E/DX2                !
 ! D87   D(13,14,19,20)        179.9728         estimate D2E/DX2                !
 ! D88   D(13,14,19,29)          1.0846         estimate D2E/DX2                !
 ! D89   D(3,15,16,17)          -0.6539         estimate D2E/DX2                !
 ! D90   D(3,15,16,31)        -179.1921         estimate D2E/DX2                !
 ! D91   D(20,15,16,17)        179.855          estimate D2E/DX2                !
 ! D92   D(20,15,16,31)          1.3168         estimate D2E/DX2                !
 ! D93   D(3,15,20,19)           0.6638         estimate D2E/DX2                !
 ! D94   D(3,15,20,30)         179.3252         estimate D2E/DX2                !
 ! D95   D(16,15,20,19)       -179.8452         estimate D2E/DX2                !
 ! D96   D(16,15,20,30)         -1.1837         estimate D2E/DX2                !
 ! D97   D(15,16,17,18)          0.1329         estimate D2E/DX2                !
 ! D98   D(15,16,17,32)       -178.6234         estimate D2E/DX2                !
 ! D99   D(31,16,17,18)        178.6492         estimate D2E/DX2                !
 ! D100  D(31,16,17,32)         -0.1071         estimate D2E/DX2                !
 ! D101  D(16,17,18,4)          -0.9783         estimate D2E/DX2                !
 ! D102  D(16,17,18,21)       -179.9454         estimate D2E/DX2                !
 ! D103  D(32,17,18,4)         177.7963         estimate D2E/DX2                !
 ! D104  D(32,17,18,21)         -1.1708         estimate D2E/DX2                !
 ! D105  D(4,18,21,22)           0.8759         estimate D2E/DX2                !
 ! D106  D(4,18,21,33)        -179.1779         estimate D2E/DX2                !
 ! D107  D(17,18,21,22)        179.843          estimate D2E/DX2                !
 ! D108  D(17,18,21,33)         -0.2108         estimate D2E/DX2                !
 ! D109  D(14,19,20,15)         -0.1261         estimate D2E/DX2                !
 ! D110  D(14,19,20,30)       -178.7675         estimate D2E/DX2                !
 ! D111  D(29,19,20,15)        178.7455         estimate D2E/DX2                !
 ! D112  D(29,19,20,30)          0.1042         estimate D2E/DX2                !
 ! D113  D(18,21,22,7)          -0.2026         estimate D2E/DX2                !
 ! D114  D(18,21,22,34)       -179.9149         estimate D2E/DX2                !
 ! D115  D(33,21,22,7)         179.852          estimate D2E/DX2                !
 ! D116  D(33,21,22,34)          0.1397         estimate D2E/DX2                !
 ! D117  D(10,23,24,11)         -0.1339         estimate D2E/DX2                !
 ! D118  D(10,23,24,26)        178.6668         estimate D2E/DX2                !
 ! D119  D(25,23,24,11)       -178.6934         estimate D2E/DX2                !
 ! D120  D(25,23,24,26)          0.1073         estimate D2E/DX2                !
 --------------------------------------------------------------------------------
 Trust Radius=3.00D-01 FncErr=1.00D-07 GrdErr=1.00D-06 EigMax=2.50D+02 EigMin=1.00D-04
 Number of steps in this run=    216 maximum allowed number of steps=    216.
 GradGradGradGradGradGradGradGradGradGradGradGradGradGradGradGradGradGrad

                          Input orientation:                          
 ---------------------------------------------------------------------
 Center     Atomic      Atomic             Coordinates (Angstroms)
 Number     Number       Type             X           Y           Z
 ---------------------------------------------------------------------
      1          6           0       -1.233513   -0.712179   -0.014640
      2          6           0       -1.233516    0.712166    0.014727
      3          6           0       -0.000004    1.424335   -0.015757
      4          6           0        1.233513    0.712179    0.014628
      5          6           0        1.233516   -0.712167   -0.014739
      6          6           0        0.000004   -1.424335    0.015732
      7          6           0        2.452748   -1.416085    0.001154
      8          6           0        2.425463   -2.837955   -0.002561
      9          6           0        1.245056   -3.519470   -0.001677
     10          6           0        0.000009   -2.832178    0.000291
     11          6           0       -2.452740   -1.416108    0.001299
     12          6           0       -3.670475   -0.681530   -0.000658
     13          6           0       -3.670479    0.681503    0.000228
     14          6           0       -2.452747    1.416085   -0.001169
     15          6           0       -0.000009    2.832178   -0.000326
     16          6           0        1.245031    3.519485    0.001968
     17          6           0        2.425444    2.837979    0.002852
     18          6           0        2.452741    1.416108   -0.001314
     19          6           0       -2.425463    2.837954    0.002640
     20          6           0       -1.245056    3.519470    0.001756
     21          6           0        3.670476    0.681531    0.000651
     22          6           0        3.670480   -0.681503   -0.000234
     23          6           0       -1.245032   -3.519485   -0.001891
     24          6           0       -2.425444   -2.837979   -0.002775
     25          1           0       -1.241124   -4.604629   -0.026433
     26          1           0       -3.367153   -3.377209   -0.026269
     27          1           0       -4.608261   -1.227494   -0.002099
     28          1           0       -4.608267    1.227464   -0.002793
     29          1           0       -3.367182    3.377160    0.024768
     30          1           0       -1.241143    4.604610    0.024881
     31          1           0        1.241124    4.604630    0.027305
     32          1           0        3.367155    3.377210    0.027144
     33          1           0        4.608261    1.227495    0.001992
     34          1           0        4.608268   -1.227463    0.002685
     35          1           0        3.367180   -3.377160   -0.023877
     36          1           0        1.241143   -4.604609   -0.023993
 ---------------------------------------------------------------------
                    Distance matrix (angstroms):
                    1          2          3          4          5
     1  C    0.000000
     2  C    1.424648   0.000000
     3  C    2.467030   1.424663   0.000000
     4  C    2.848837   2.467029   1.424659   0.000000
     5  C    2.467029   2.848831   2.467025   1.424649   0.000000
     6  C    1.424659   2.467024   2.848844   2.467030   1.424663
     7  C    3.752899   4.256545   3.752901   2.452799   1.407935
     8  C    4.231687   5.098214   4.904098   3.744929   2.437183
     9  C    3.744911   4.904114   5.098194   4.231696   2.807357
    10  C    2.452793   3.752888   4.256543   3.752893   2.452797
    11  C    1.407936   2.452802   3.752908   4.256553   3.752902
    12  C    2.437195   2.807382   4.231696   5.098211   4.904107
    13  C    2.807378   2.437199   3.744922   4.904109   5.098206
    14  C    2.452799   1.407934   2.452800   3.752898   4.256545
    15  C    3.752893   2.452798   1.407928   2.452793   3.752889
    16  C    4.904124   3.744916   2.437228   2.807358   4.231701
    17  C    5.098225   4.231691   2.807407   2.437184   3.744935
    18  C    4.256554   3.752903   2.452801   1.407937   2.452803
    19  C    3.744928   2.437182   2.807402   4.231686   5.098214
    20  C    4.231697   2.807358   2.437222   3.744910   4.904115
    21  C    5.098212   4.904108   3.744923   2.437196   2.807384
    22  C    4.904110   5.098207   4.231696   2.807379   2.437200
    23  C    2.807359   4.231699   5.098200   4.904125   3.744917
    24  C    2.437184   3.744934   4.904105   5.098224   4.231691
    25  H    3.892475   5.316960   6.155396   5.864637   4.612509
    26  H    3.413933   4.612708   5.864523   6.155558   5.316835
    27  H    3.413888   3.892489   5.316805   6.155399   5.864476
    28  H    3.892470   3.413910   4.612485   5.864488   6.155383
    29  H    4.612677   3.413916   3.892693   5.316824   6.155532
    30  H    5.316941   3.892465   3.414122   4.612488   5.864608
    31  H    5.864644   4.612513   3.414166   3.892479   5.316969
    32  H    6.155566   5.316840   3.892727   3.413938   4.612719
    33  H    6.155399   5.864477   4.612501   3.413888   3.892489
    34  H    5.864488   6.155383   5.316817   3.892470   3.413910
    35  H    5.316821   6.155524   5.864499   4.612669   3.413912
    36  H    4.612485   5.864600   6.155378   5.316934   3.892460
                    6          7          8          9         10
     6  C    0.000000
     7  C    2.452801   0.000000
     8  C    2.807402   1.422137   0.000000
     9  C    2.437221   2.425439   1.363020   0.000000
    10  C    1.407928   2.832181   2.425463   1.422152   0.000000
    11  C    2.452800   4.905488   5.081194   4.254155   2.832178
    12  C    3.744922   6.167125   6.466114   5.675945   4.254144
    13  C    4.231695   6.472541   7.038970   6.466116   5.081185
    14  C    3.752900   5.664369   6.472541   6.167127   4.905482
    15  C    4.256543   4.905482   6.167117   6.472528   5.664356
    16  C    5.098199   5.081184   6.466103   7.038956   6.472535
    17  C    4.904105   4.254152   5.675937   6.466103   6.167124
    18  C    3.752909   2.832194   4.254151   5.081184   4.905490
    19  C    4.904097   6.472541   7.466422   7.340951   6.167116
    20  C    5.098194   6.167127   7.340952   7.466415   6.472528
    21  C    4.231698   2.425460   3.733209   4.850884   5.081189
    22  C    3.744923   1.422141   2.490052   3.733194   4.254146
    23  C    2.437228   4.254160   3.733231   2.490088   1.422154
    24  C    2.807406   5.081196   4.850907   3.733229   2.425462
    25  H    3.414154   4.879781   4.070082   2.712798   2.163957
    26  H    3.892715   6.141499   5.817711   4.614468   3.411091
    27  H    4.612502   7.063528   7.215737   6.286054   4.879669
    28  H    5.316817   7.539649   8.124099   7.536231   6.141409
    29  H    5.864501   7.539718   8.496066   8.296803   7.063601
    30  H    6.155380   7.063580   8.296778   8.496032   7.539687
    31  H    6.155399   6.141476   7.536287   8.124153   7.539709
    32  H    5.864526   4.879805   6.286171   7.215839   7.063632
    33  H    5.316806   3.410975   4.614381   5.817632   6.141411
    34  H    4.612486   2.163758   2.712628   4.069952   4.879669
    35  H    3.892681   2.163938   1.085370   2.127006   3.411075
    36  H    3.414110   3.411056   2.127002   1.085375   2.163912
                   11         12         13         14         15
    11  C    0.000000
    12  C    1.422142   0.000000
    13  C    2.425461   1.363033   0.000000
    14  C    2.832194   2.425459   1.422141   0.000000
    15  C    4.905489   5.081187   4.254145   2.832180   0.000000
    16  C    6.167138   6.466122   5.675948   4.254158   1.422154
    17  C    6.472553   7.038976   6.466117   5.081195   2.425462
    18  C    5.664380   6.472547   6.167128   4.905488   2.832179
    19  C    4.254150   3.733207   2.490051   1.422136   2.425463
    20  C    5.081184   4.850883   3.733194   2.425439   1.422152
    21  C    6.472547   7.466425   7.340955   6.167125   4.254144
    22  C    6.167128   7.340955   7.466422   6.472541   5.081185
    23  C    2.425441   3.733198   4.850886   5.081184   6.472535
    24  C    1.422139   2.490056   3.733212   4.254152   6.167124
    25  H    3.411077   4.614446   5.817703   6.141471   7.539705
    26  H    2.163984   2.712811   4.070117   4.879799   7.063626
    27  H    2.163760   1.085137   2.126902   3.410975   6.141411
    28  H    3.410980   2.126903   1.085140   2.163758   4.879667
    29  H    4.879772   4.070086   2.712777   2.163950   3.411083
    30  H    6.141463   5.817696   4.614439   3.411064   2.163923
    31  H    7.063611   7.215821   6.286136   4.879786   2.163969
    32  H    7.539744   8.124185   7.536302   6.141504   3.411101
    33  H    7.539653   8.495990   8.296725   7.063527   4.879669
    34  H    7.063528   8.296725   8.495988   7.539648   6.141410
    35  H    6.141484   7.536282   8.124160   7.539712   7.063596
    36  H    4.879749   6.286103   7.215788   7.063576   7.539683
                   16         17         18         19         20
    16  C    0.000000
    17  C    1.363021   0.000000
    18  C    2.425442   1.422139   0.000000
    19  C    3.733231   4.850907   5.081194   0.000000
    20  C    2.490087   3.733229   4.254156   1.363021   0.000000
    21  C    3.733198   2.490056   1.422141   6.466114   5.675945
    22  C    4.850887   3.733213   2.425461   7.038971   6.466117
    23  C    7.466427   7.340965   6.167139   6.466101   7.038956
    24  C    7.340964   7.466435   6.472553   5.675936   6.466103
    25  H    8.496058   8.296806   7.063607   7.536282   8.124149
    26  H    8.296832   8.496093   7.539740   6.286165   7.215834
    27  H    7.536236   8.124106   7.539654   4.614379   5.817631
    28  H    6.286054   7.215738   7.063528   2.712626   4.069951
    29  H    4.614465   5.817707   6.141491   1.085388   2.127017
    30  H    2.712763   4.070053   4.879755   2.127012   1.085393
    31  H    1.085448   2.127033   3.411086   4.070088   2.712806
    32  H    2.127037   1.085440   2.163997   5.817716   4.614474
    33  H    4.069955   2.712628   2.163759   7.215736   6.286054
    34  H    5.817635   4.614384   3.410979   8.124099   7.536231
    35  H    7.215809   6.286138   4.879767   8.496061   8.296800
    36  H    8.124136   7.536273   6.141459   8.296774   8.496029
                   21         22         23         24         25
    21  C    0.000000
    22  C    1.363034   0.000000
    23  C    6.466124   5.675950   0.000000
    24  C    7.038977   6.466118   1.363020   0.000000
    25  H    7.215818   6.286132   1.085429   2.127023   0.000000
    26  H    8.124181   7.536298   2.127025   1.085420   2.454905
    27  H    8.495991   8.296726   4.069955   2.712628   4.768988
    28  H    8.296725   8.495988   5.817635   4.614384   6.734354
    29  H    7.536287   8.124165   7.215812   6.286142   8.260248
    30  H    6.286107   7.215793   8.124140   7.536277   9.209382
    31  H    4.614452   5.817708   8.496062   8.296810   9.538076
    32  H    2.712820   4.070124   8.296838   8.496097   9.216771
    33  H    1.085136   2.126902   7.536237   8.124107   8.260132
    34  H    2.126903   1.085139   6.286057   7.215739   6.754368
    35  H    4.070081   2.712769   4.614460   5.817702   4.768978
    36  H    5.817692   4.614434   2.712757   4.070048   2.482268
                   26         27         28         29         30
    26  H    0.000000
    27  H    2.482379   0.000000
    28  H    4.769060   2.454958   0.000000
    29  H    6.754562   4.769050   2.482387   0.000000
    30  H    8.260264   6.734363   4.769005   2.454929   0.000000
    31  H    9.216770   8.260136   6.754371   4.768980   2.482268
    32  H    9.538130   9.209311   8.260125   6.734337   4.768954
    33  H    9.209306   9.537886   9.216529   8.260101   6.754329
    34  H    8.260120   9.216530   9.537883   9.209280   8.260095
    35  H    6.734333   8.260097   9.209276   9.538073   9.216706
    36  H    4.768953   6.754325   8.260092   9.216706   9.538021
                   31         32         33         34         35
    31  H    0.000000
    32  H    2.454907   0.000000
    33  H    4.768993   2.482388   0.000000
    34  H    6.734358   4.769064   2.454958   0.000000
    35  H    8.260249   6.754563   4.769046   2.482378   0.000000
    36  H    9.209382   8.260265   6.734359   4.769000   2.454927
                   36
    36  H    0.000000
 This structure is nearly, but not quite of a higher symmetry.
 Consider Symm=Loose if the higher symmetry is desired.
 Stoichiometry    C24H12
 Framework group  C1[X(C24H12)]
 Deg. of freedom   102
 Full point group                 C1      NOp   1
 Largest Abelian subgroup         C1      NOp   1
 Largest concise Abelian subgroup C1      NOp   1
                         Standard orientation:                         
 ---------------------------------------------------------------------
 Center     Atomic      Atomic             Coordinates (Angstroms)
 Number     Number       Type             X           Y           Z
 ---------------------------------------------------------------------
      1          6           0       -1.412030    0.187039   -0.012505
      2          6           0       -0.543969    1.316391    0.013069
      3          6           0        0.867973    1.129256   -0.019578
      4          6           0        1.412030   -0.187039    0.012437
      5          6           0        0.543968   -1.316392   -0.013137
      6          6           0       -0.867973   -1.129256    0.019496
      7          6           0        1.081693   -2.617478    0.004366
      8          6           0        0.193551   -3.728188    0.004443
      9          6           0       -1.157659   -3.549170    0.007397
     10          6           0       -1.725952   -2.245498    0.007804
     11          6           0       -2.807651    0.371973    0.005571
     12          6           0       -3.325479    1.696483    0.001921
     13          6           0       -2.494834    2.777168   -0.000822
     14          6           0       -1.081693    2.617477   -0.004438
     15          6           0        1.725951    2.245498   -0.007896
     16          6           0        3.131941    2.031691   -0.007701
     17          6           0        3.652519    0.772001   -0.005257
     18          6           0        2.807651   -0.371973   -0.005643
     19          6           0       -0.193552    3.728187   -0.004421
     20          6           0        1.157659    3.549170   -0.007375
     21          6           0        3.325480   -1.696483   -0.001985
     22          6           0        2.494835   -2.777169    0.000759
     23          6           0       -3.131942   -2.031690    0.007721
     24          6           0       -3.652519   -0.772001    0.005278
     25          1           0       -3.790186   -2.894477   -0.013932
     26          1           0       -4.727811   -0.625686   -0.016577
     27          1           0       -4.401724    1.835111    0.002137
     28          1           0       -2.905653    3.781528   -0.005094
     29          1           0       -0.611559    4.729637    0.016474
     30          1           0        1.822098    4.407185    0.012860
     31          1           0        3.790187    2.894480    0.014747
     32          1           0        4.727814    0.625688    0.017395
     33          1           0        4.401725   -1.835111   -0.002301
     34          1           0        2.905654   -3.781528    0.004929
     35          1           0        0.611558   -4.729634   -0.015640
     36          1           0       -1.822097   -4.407182   -0.012028
 ---------------------------------------------------------------------
 Rotational constants (GHZ):           0.3362918           0.3362905           0.1681479
 Standard basis: 6-311++G(d,p) (5D, 7F)
 There are   636 symmetry adapted cartesian basis functions of A   symmetry.
 There are   612 symmetry adapted basis functions of A   symmetry.
   612 basis functions,   972 primitive gaussians,   636 cartesian basis functions
    78 alpha electrons       78 beta electrons
       nuclear repulsion energy      1837.8887241868 Hartrees.
 NAtoms=   36 NActive=   36 NUniq=   36 SFac= 1.00D+00 NAtFMM=   60 NAOKFM=F Big=F
 Integral buffers will be    131072 words long.
 Raffenetti 2 integral format.
 Two-electron integral symmetry is turned on.
 Nuclear repulsion after empirical dispersion term =     1837.8596501546 Hartrees.
 One-electron integrals computed using PRISM.
 PrsmSu:  requested number of processors reduced to:  24 ShMem   1 Linda.
 NBasis=   612 RedAO= T EigKep=  1.86D-06  NBF=   612
 NBsUse=   592 1.00D-06 EigRej=  8.62D-07 NBFU=   592
 ExpMin= 3.60D-02 ExpMax= 4.56D+03 ExpMxC= 6.82D+02 IAcc=3 IRadAn=         5 AccDes= 0.00D+00
 Harris functional with IExCor= 4639 and IRadAn=       5 diagonalized for initial guess.
 HarFok:  IExCor= 4639 AccDes= 0.00D+00 IRadAn=         5 IDoV= 1 UseB2=F ITyADJ=14
 ICtDFT=  3500011 ScaDFX=  1.000000  1.000000  1.000000  1.000000
 FoFCou: FMM=F IPFlag=           0 FMFlag=      100000 FMFlg1=           0
         NFxFlg=           0 DoJE=T BraDBF=F KetDBF=T FulRan=T
         wScrn=  0.000000 ICntrl=       500 IOpCl=  0 I1Cent=   200000004 NGrid=           0
         NMat0=    1 NMatS0=      1 NMatT0=    0 NMatD0=    1 NMtDS0=    0 NMtDT0=    0
 Petite list used in FoFCou.
 Requested convergence on RMS density matrix=1.00D-08 within 128 cycles.
 Requested convergence on MAX density matrix=1.00D-06.
 Requested convergence on             energy=1.00D-06.
 No special actions if energy rises.
 SCF Done:  E(RwB97XD) =  -921.769326667     A.U. after   13 cycles
            NFock= 13  Conv=0.21D-08     -V/T= 2.0042

 **********************************************************************

            Population analysis using the SCF density.

 **********************************************************************

 Orbital symmetries:
       Occupied  (A) (A) (A) (A) (A) (A) (A) (A) (A) (A) (A) (A)
                 (A) (A) (A) (A) (A) (A) (A) (A) (A) (A) (A) (A)
                 (A) (A) (A) (A) (A) (A) (A) (A) (A) (A) (A) (A)
                 (A) (A) (A) (A) (A) (A) (A) (A) (A) (A) (A) (A)
                 (A) (A) (A) (A) (A) (A) (A) (A) (A) (A) (A) (A)
                 (A) (A) (A) (A) (A) (A) (A) (A) (A) (A) (A) (A)
                 (A) (A) (A) (A) (A) (A)
       Virtual   (A) (A) (A) (A) (A) (A) (A) (A) (A) (A) (A) (A)
                 (A) (A) (A) (A) (A) (A) (A) (A) (A) (A) (A) (A)
                 (A) (A) (A) (A) (A) (A) (A) (A) (A) (A) (A) (A)
                 (A) (A) (A) (A) (A) (A) (A) (A) (A) (A) (A) (A)
                 (A) (A) (A) (A) (A) (A) (A) (A) (A) (A) (A) (A)
                 (A) (A) (A) (A) (A) (A) (A) (A) (A) (A) (A) (A)
                 (A) (A) (A) (A) (A) (A) (A) (A) (A) (A) (A) (A)
                 (A) (A) (A) (A) (A) (A) (A) (A) (A) (A) (A) (A)
                 (A) (A) (A) (A) (A) (A) (A) (A) (A) (A) (A) (A)
                 (A) (A) (A) (A) (A) (A) (A) (A) (A) (A) (A) (A)
                 (A) (A) (A) (A) (A) (A) (A) (A) (A) (A) (A) (A)
                 (A) (A) (A) (A) (A) (A) (A) (A) (A) (A) (A) (A)
                 (A) (A) (A) (A) (A) (A) (A) (A) (A) (A) (A) (A)
                 (A) (A) (A) (A) (A) (A) (A) (A) (A) (A) (A) (A)
                 (A) (A) (A) (A) (A) (A) (A) (A) (A) (A) (A) (A)
                 (A) (A) (A) (A) (A) (A) (A) (A) (A) (A) (A) (A)
                 (A) (A) (A) (A) (A) (A) (A) (A) (A) (A) (A) (A)
                 (A) (A) (A) (A) (A) (A) (A) (A) (A) (A) (A) (A)
                 (A) (A) (A) (A) (A) (A) (A) (A) (A) (A) (A) (A)
                 (A) (A) (A) (A) (A) (A) (A) (A) (A) (A) (A) (A)
                 (A) (A) (A) (A) (A) (A) (A) (A) (A) (A) (A) (A)
                 (A) (A) (A) (A) (A) (A) (A) (A) (A) (A) (A) (A)
                 (A) (A) (A) (A) (A) (A) (A) (A) (A) (A) (A) (A)
                 (A) (A) (A) (A) (A) (A) (A) (A) (A) (A) (A) (A)
                 (A) (A) (A) (A) (A) (A) (A) (A) (A) (A) (A) (A)
                 (A) (A) (A) (A) (A) (A) (A) (A) (A) (A) (A) (A)
                 (A) (A) (A) (A) (A) (A) (A) (A) (A) (A) (A) (A)
                 (A) (A) (A) (A) (A) (A) (A) (A) (A) (A) (A) (A)
                 (A) (A) (A) (A) (A) (A) (A) (A) (A) (A) (A) (A)
                 (A) (A) (A) (A) (A) (A) (A) (A) (A) (A) (A) (A)
                 (A) (A) (A) (A) (A) (A) (A) (A) (A) (A) (A) (A)
                 (A) (A) (A) (A) (A) (A) (A) (A) (A) (A) (A) (A)
                 (A) (A) (A) (A) (A) (A) (A) (A) (A) (A) (A) (A)
                 (A) (A) (A) (A) (A) (A) (A) (A) (A) (A) (A) (A)
                 (A) (A) (A) (A) (A) (A) (A) (A) (A) (A) (A) (A)
                 (A) (A) (A) (A) (A) (A) (A) (A) (A) (A) (A) (A)
                 (A) (A) (A) (A) (A) (A) (A) (A) (A) (A) (A) (A)
                 (A) (A) (A) (A) (A) (A) (A) (A) (A) (A) (A) (A)
                 (A) (A) (A) (A) (A) (A) (A) (A) (A) (A) (A) (A)
                 (A) (A) (A) (A) (A) (A) (A) (A) (A) (A) (A) (A)
                 (A) (A) (A) (A) (A) (A) (A) (A) (A) (A) (A) (A)
                 (A) (A) (A) (A) (A) (A) (A) (A) (A) (A) (A) (A)
                 (A) (A) (A) (A) (A) (A) (A) (A) (A) (A)
 The electronic state is 1-A.
 Alpha  occ. eigenvalues --  -10.30497 -10.30479 -10.30479 -10.30449 -10.30448
 Alpha  occ. eigenvalues --  -10.30441 -10.30413 -10.30411 -10.30410 -10.30396
 Alpha  occ. eigenvalues --  -10.30396 -10.30382 -10.29601 -10.29601 -10.29600
 Alpha  occ. eigenvalues --  -10.29599 -10.29597 -10.29597 -10.29529 -10.29529
 Alpha  occ. eigenvalues --  -10.29528 -10.29528 -10.29526 -10.29526  -1.01864
 Alpha  occ. eigenvalues --   -0.98119  -0.98119  -0.93261  -0.93261  -0.91459
 Alpha  occ. eigenvalues --   -0.88381  -0.86777  -0.85074  -0.85074  -0.81753
 Alpha  occ. eigenvalues --   -0.81752  -0.73831  -0.73831  -0.73311  -0.73310
 Alpha  occ. eigenvalues --   -0.72744  -0.65991  -0.65559  -0.63670  -0.63669
 Alpha  occ. eigenvalues --   -0.63595  -0.61378  -0.57011  -0.57010  -0.55257
 Alpha  occ. eigenvalues --   -0.55257  -0.54873  -0.54871  -0.52720  -0.52058
 Alpha  occ. eigenvalues --   -0.51292  -0.51292  -0.50815  -0.49276  -0.49267
 Alpha  occ. eigenvalues --   -0.48231  -0.48218  -0.46325  -0.46152  -0.44744
 Alpha  occ. eigenvalues --   -0.44737  -0.44736  -0.42313  -0.42302  -0.40454
 Alpha  occ. eigenvalues --   -0.40150  -0.40145  -0.35662  -0.34873  -0.33225
 Alpha  occ. eigenvalues --   -0.33224  -0.27375  -0.27373
 Alpha virt. eigenvalues --   -0.00509  -0.00509   0.03868   0.03932   0.03934
 Alpha virt. eigenvalues --    0.04322   0.04324   0.05346   0.05347   0.05514
 Alpha virt. eigenvalues --    0.06747   0.06795   0.08553   0.08589   0.08595
 Alpha virt. eigenvalues --    0.08636   0.10573   0.10576   0.10757   0.11061
 Alpha virt. eigenvalues --    0.11130   0.11194   0.12488   0.12501   0.13133
 Alpha virt. eigenvalues --    0.13152   0.13380   0.14627   0.15349   0.15351
 Alpha virt. eigenvalues --    0.15385   0.15387   0.15428   0.16527   0.16529
 Alpha virt. eigenvalues --    0.16865   0.16868   0.17261   0.17543   0.17710
 Alpha virt. eigenvalues --    0.17819   0.17977   0.18511   0.18843   0.18847
 Alpha virt. eigenvalues --    0.19684   0.19691   0.19892   0.19894   0.19951
 Alpha virt. eigenvalues --    0.19959   0.21334   0.22112   0.22669   0.22670
 Alpha virt. eigenvalues --    0.23636   0.23643   0.24249   0.24255   0.24771
 Alpha virt. eigenvalues --    0.24813   0.24952   0.24996   0.26043   0.26045
 Alpha virt. eigenvalues --    0.26106   0.26106   0.26722   0.26884   0.26886
 Alpha virt. eigenvalues --    0.27647   0.28188   0.28206   0.28256   0.28256
 Alpha virt. eigenvalues --    0.28441   0.29543   0.29900   0.30024   0.30028
 Alpha virt. eigenvalues --    0.31503   0.31516   0.31963   0.32377   0.32475
 Alpha virt. eigenvalues --    0.32476   0.34038   0.34043   0.34486   0.34503
 Alpha virt. eigenvalues --    0.34667   0.34668   0.35112   0.35137   0.35767
 Alpha virt. eigenvalues --    0.35768   0.36039   0.36148   0.36519   0.36587
 Alpha virt. eigenvalues --    0.36862   0.37027   0.37195   0.39148   0.39175
 Alpha virt. eigenvalues --    0.39178   0.39268   0.39305   0.39712   0.39715
 Alpha virt. eigenvalues --    0.39903   0.40137   0.40142   0.40815   0.40828
 Alpha virt. eigenvalues --    0.42584   0.42585   0.43376   0.43878   0.44604
 Alpha virt. eigenvalues --    0.46164   0.46166   0.47423   0.47425   0.48984
 Alpha virt. eigenvalues --    0.49001   0.50300   0.50313   0.51385   0.52738
 Alpha virt. eigenvalues --    0.54770   0.57010   0.57586   0.57942   0.58361
 Alpha virt. eigenvalues --    0.58372   0.59124   0.59161   0.59163   0.59834
 Alpha virt. eigenvalues --    0.59913   0.61189   0.61207   0.63276   0.63342
 Alpha virt. eigenvalues --    0.63767   0.63808   0.64780   0.64787   0.65034
 Alpha virt. eigenvalues --    0.66274   0.66828   0.67580   0.67623   0.68812
 Alpha virt. eigenvalues --    0.68875   0.69322   0.69328   0.69613   0.69699
 Alpha virt. eigenvalues --    0.69860   0.70488   0.70492   0.71266   0.71833
 Alpha virt. eigenvalues --    0.71836   0.73350   0.74037   0.74080   0.74227
 Alpha virt. eigenvalues --    0.74401   0.75046   0.75054   0.75536   0.75553
 Alpha virt. eigenvalues --    0.76888   0.76983   0.77932   0.79190   0.79367
 Alpha virt. eigenvalues --    0.82287   0.82298   0.82312   0.82652   0.83866
 Alpha virt. eigenvalues --    0.83874   0.84963   0.85030   0.85975   0.86198
 Alpha virt. eigenvalues --    0.86221   0.86344   0.86407   0.86703   0.86746
 Alpha virt. eigenvalues --    0.88953   0.90066   0.90173   0.91047   0.91099
 Alpha virt. eigenvalues --    0.91856   0.91891   0.93956   0.95388   0.96261
 Alpha virt. eigenvalues --    0.98255   0.98327   0.98876   0.99019   0.99638
 Alpha virt. eigenvalues --    0.99664   0.99991   1.02964   1.03047   1.03536
 Alpha virt. eigenvalues --    1.03838   1.04042   1.04095   1.04668   1.04747
 Alpha virt. eigenvalues --    1.05049   1.05718   1.06155   1.06727   1.06761
 Alpha virt. eigenvalues --    1.07068   1.07079   1.07093   1.08555   1.08840
 Alpha virt. eigenvalues --    1.08859   1.08876   1.11108   1.11856   1.11964
 Alpha virt. eigenvalues --    1.12614   1.12782   1.14579   1.14597   1.15609
 Alpha virt. eigenvalues --    1.16201   1.17827   1.18286   1.19354   1.21545
 Alpha virt. eigenvalues --    1.21901   1.24030   1.24252   1.25024   1.25091
 Alpha virt. eigenvalues --    1.25767   1.25796   1.26080   1.29106   1.29505
 Alpha virt. eigenvalues --    1.29522   1.39233   1.39239   1.41327   1.41372
 Alpha virt. eigenvalues --    1.41609   1.43702   1.45043   1.50869   1.51129
 Alpha virt. eigenvalues --    1.51305   1.53251   1.53471   1.54473   1.54807
 Alpha virt. eigenvalues --    1.55069   1.55270   1.55544   1.56204   1.56251
 Alpha virt. eigenvalues --    1.56853   1.58192   1.58217   1.58263   1.58829
 Alpha virt. eigenvalues --    1.58917   1.59521   1.61621   1.62719   1.62966
 Alpha virt. eigenvalues --    1.65766   1.65799   1.66087   1.67615   1.67678
 Alpha virt. eigenvalues --    1.67934   1.68968   1.69003   1.69040   1.71459
 Alpha virt. eigenvalues --    1.71507   1.74756   1.75567   1.75682   1.78325
 Alpha virt. eigenvalues --    1.80458   1.80973   1.81973   1.82043   1.82748
 Alpha virt. eigenvalues --    1.82818   1.82842   1.82856   1.84466   1.84517
 Alpha virt. eigenvalues --    1.84881   1.86958   1.86981   1.91403   1.91666
 Alpha virt. eigenvalues --    1.92310   1.93517   1.93835   1.94402   1.94783
 Alpha virt. eigenvalues --    1.94898   1.96307   1.98204   1.98239   1.99297
 Alpha virt. eigenvalues --    1.99375   2.00515   2.00647   2.00731   2.01449
 Alpha virt. eigenvalues --    2.01526   2.01688   2.05200   2.06782   2.07656
 Alpha virt. eigenvalues --    2.07966   2.09028   2.09070   2.09747   2.09809
 Alpha virt. eigenvalues --    2.12408   2.13063   2.13970   2.14048   2.14344
 Alpha virt. eigenvalues --    2.16732   2.18320   2.18376   2.18625   2.18652
 Alpha virt. eigenvalues --    2.21853   2.21861   2.23943   2.24081   2.24468
 Alpha virt. eigenvalues --    2.24891   2.25535   2.27578   2.29833   2.29839
 Alpha virt. eigenvalues --    2.34128   2.38355   2.38396   2.39199   2.40596
 Alpha virt. eigenvalues --    2.40669   2.43969   2.43994   2.45093   2.45122
 Alpha virt. eigenvalues --    2.46002   2.49293   2.49350   2.55494   2.59563
 Alpha virt. eigenvalues --    2.61534   2.61775   2.61823   2.62189   2.62583
 Alpha virt. eigenvalues --    2.62626   2.66563   2.66582   2.68933   2.68940
 Alpha virt. eigenvalues --    2.71823   2.72763   2.73436   2.76140   2.76188
 Alpha virt. eigenvalues --    2.80004   2.81786   2.81814   2.81878   2.83313
 Alpha virt. eigenvalues --    2.83356   2.83864   2.84448   2.84466   2.85052
 Alpha virt. eigenvalues --    2.85062   2.85501   2.86291   2.86311   2.87004
 Alpha virt. eigenvalues --    2.87180   2.88687   2.88976   2.89495   2.89562
 Alpha virt. eigenvalues --    2.91068   2.91089   2.91801   2.92424   2.94485
 Alpha virt. eigenvalues --    2.96512   2.96543   2.97120   2.97126   2.98265
 Alpha virt. eigenvalues --    2.98267   2.98301   2.98316   3.02900   3.03672
 Alpha virt. eigenvalues --    3.03704   3.04281   3.04482   3.15057   3.15748
 Alpha virt. eigenvalues --    3.17691   3.17695   3.22672   3.22791   3.22986
 Alpha virt. eigenvalues --    3.29565   3.30961   3.31317   3.34719   3.34724
 Alpha virt. eigenvalues --    3.35825   3.35832   3.40196   3.42584   3.42590
 Alpha virt. eigenvalues --    3.46034   3.46049   3.47519   3.52714   3.52723
 Alpha virt. eigenvalues --    3.53127   3.53767   3.57181   3.57196   3.57232
 Alpha virt. eigenvalues --    3.59001   3.59002   3.62402   3.62417   3.66781
 Alpha virt. eigenvalues --    3.70556   3.71935   3.71959   3.76981   3.77034
 Alpha virt. eigenvalues --    3.77820   3.84006   3.84008   3.91923   4.01446
 Alpha virt. eigenvalues --    4.01452   4.12521   4.18360   4.18368   4.18789
 Alpha virt. eigenvalues --    4.20396   4.20934   4.20952   4.31845   4.40075
 Alpha virt. eigenvalues --    4.40139   4.57749   4.57762   4.93906   4.95477
 Alpha virt. eigenvalues --    4.95509   4.95961   4.95978   4.97881   4.98331
 Alpha virt. eigenvalues --   23.55668  23.83264  23.83292  23.98978  23.98990
 Alpha virt. eigenvalues --   24.01964  24.02962  24.09793  24.09811  24.11502
 Alpha virt. eigenvalues --   24.11503  24.12365  24.14973  24.17722  24.17725
 Alpha virt. eigenvalues --   24.19208  24.19213  24.21833  24.32894  24.33277
 Alpha virt. eigenvalues --   24.33285  24.33476  24.33483  24.33562
          Condensed to atoms (all electrons):
               1          2          3          4          5          6
     1  C    6.439314  -0.074596   0.404108  -0.046702   0.404501  -0.073705
     2  C   -0.074596   6.438921  -0.073502   0.404717  -0.046906   0.404099
     3  C    0.404108  -0.073502   6.438383  -0.073553   0.404073  -0.049401
     4  C   -0.046702   0.404717  -0.073553   6.439142  -0.074592   0.404134
     5  C    0.404501  -0.046906   0.404073  -0.074592   6.439085  -0.073646
     6  C   -0.073705   0.404099  -0.049401   0.404134  -0.073646   6.438192
     7  C    0.085178  -0.004352   0.087720   0.542516   0.389246   0.541398
     8  C   -0.445913  -0.027325   0.020983  -0.421821  -0.419700  -0.043130
     9  C   -0.424359   0.019182  -0.025175  -0.443529  -0.033337  -0.415619
    10  C    0.541884   0.084823  -0.006574   0.084569   0.541943   0.390320
    11  C    0.389271   0.542613   0.087752  -0.004182   0.085467   0.541384
    12  C   -0.417624  -0.041061  -0.444746  -0.027763   0.020796  -0.422969
    13  C   -0.039872  -0.417290  -0.423350   0.020564  -0.027534  -0.444423
    14  C    0.542397   0.389379   0.541448   0.085186  -0.004396   0.087641
    15  C    0.084534   0.541920   0.390435   0.541863   0.084787  -0.006648
    16  C    0.019135  -0.424646  -0.415301  -0.032578  -0.443315  -0.025175
    17  C   -0.027574  -0.446097  -0.043750  -0.419863  -0.421601   0.021160
    18  C   -0.004229   0.085472   0.541430   0.389413   0.542494   0.087672
    19  C   -0.421712  -0.419741  -0.043238  -0.446011  -0.027359   0.021009
    20  C   -0.443478  -0.033052  -0.415635  -0.424543   0.019150  -0.025180
    21  C   -0.027751   0.020726  -0.423178  -0.417708  -0.040890  -0.444631
    22  C    0.020633  -0.027546  -0.444539  -0.040032  -0.417204  -0.423142
    23  C   -0.032857  -0.443360  -0.025168   0.019166  -0.424466  -0.415291
    24  C   -0.419817  -0.421701   0.021138  -0.027541  -0.446001  -0.043652
    25  H   -0.011580  -0.001864  -0.000889   0.003831  -0.007515   0.014422
    26  H    0.014023  -0.007248   0.003851  -0.000842  -0.002072  -0.011949
    27  H    0.014227  -0.011747  -0.002141  -0.000945   0.003930  -0.006934
    28  H   -0.011705   0.014270  -0.006946   0.003929  -0.000950  -0.002124
    29  H   -0.007302   0.014040  -0.011952  -0.002052  -0.000837   0.003848
    30  H   -0.001860  -0.011618   0.014418  -0.007565   0.003826  -0.000879
    31  H    0.003831  -0.007519   0.014430  -0.011570  -0.001866  -0.000889
    32  H   -0.000842  -0.002075  -0.011961   0.014013  -0.007238   0.003853
    33  H   -0.000946   0.003930  -0.006926   0.014231  -0.011758  -0.002140
    34  H    0.003930  -0.000950  -0.002125  -0.011694   0.014266  -0.006954
    35  H   -0.002049  -0.000837   0.003847  -0.007313   0.014050  -0.011941
    36  H   -0.007561   0.003826  -0.000879  -0.001857  -0.011627   0.014411
               7          8          9         10         11         12
     1  C    0.085178  -0.445913  -0.424359   0.541884   0.389271  -0.417624
     2  C   -0.004352  -0.027325   0.019182   0.084823   0.542613  -0.041061
     3  C    0.087720   0.020983  -0.025175  -0.006574   0.087752  -0.444746
     4  C    0.542516  -0.421821  -0.443529   0.084569  -0.004182  -0.027763
     5  C    0.389246  -0.419700  -0.033337   0.541943   0.085467   0.020796
     6  C    0.541398  -0.043130  -0.415619   0.390320   0.541384  -0.422969
     7  C    8.516056  -0.780612  -1.487915   0.410515  -0.030716   0.058231
     8  C   -0.780612   8.289065   1.844452  -1.491292  -0.185437  -0.064257
     9  C   -1.487915   1.844452   8.276518  -0.771352  -0.143774   0.027567
    10  C    0.410515  -1.491292  -0.771352   8.507828   0.411212  -0.147407
    11  C   -0.030716  -0.185437  -0.143774   0.411212   8.516761  -0.779967
    12  C    0.058231  -0.064257   0.027567  -0.147407  -0.779967   8.287246
    13  C   -0.009321  -0.066355  -0.064470  -0.186434  -1.487069   1.845666
    14  C    0.012343  -0.008730   0.058277  -0.030925   0.418550  -1.487192
    15  C   -0.030920   0.058574  -0.008115   0.014410  -0.030954  -0.186421
    16  C   -0.187101  -0.064664  -0.066035  -0.008208   0.058219  -0.064469
    17  C   -0.147531   0.026338  -0.064602   0.058538  -0.008884  -0.066398
    18  C    0.418554  -0.147289  -0.186931  -0.030958   0.012142  -0.009387
    19  C   -0.008732   0.029674   0.034036   0.058574  -0.147277  -0.025280
    20  C    0.058281   0.034038   0.029746  -0.008120  -0.186942   0.228043
    21  C   -1.487259  -0.025239   0.228027  -0.186408  -0.009383   0.029631
    22  C   -0.779167  -0.407999  -0.028396  -0.147332   0.058208   0.033783
    23  C   -0.143991  -0.030895  -0.412908  -0.771528  -1.487720  -0.027818
    24  C   -0.185578   0.226687  -0.030692  -1.491493  -0.781426  -0.407451
    25  H    0.018076   0.023317   0.029306  -0.064066  -0.021613  -0.003860
    26  H   -0.003200   0.003703  -0.003862  -0.022054  -0.064489   0.028340
    27  H    0.000756  -0.001168  -0.000488   0.018063  -0.063075   0.390750
    28  H    0.000310  -0.001115  -0.000865  -0.003177  -0.022063  -0.026175
    29  H    0.000334   0.000583   0.000106   0.000761   0.017876   0.023208
    30  H    0.000763   0.000110   0.000576   0.000334  -0.003207   0.003699
    31  H   -0.003205  -0.000865  -0.001107   0.000331   0.000763  -0.001178
    32  H    0.017883  -0.000535  -0.001191   0.000762   0.000330  -0.001112
    33  H   -0.022119  -0.003688   0.003728  -0.003181   0.000310   0.000584
    34  H   -0.062997   0.028405   0.022960   0.018076   0.000756   0.000096
    35  H   -0.064594   0.390261  -0.025020  -0.022032  -0.003198  -0.000852
    36  H   -0.021648  -0.024839   0.389679  -0.064239   0.018055  -0.000429
              13         14         15         16         17         18
     1  C   -0.039872   0.542397   0.084534   0.019135  -0.027574  -0.004229
     2  C   -0.417290   0.389379   0.541920  -0.424646  -0.446097   0.085472
     3  C   -0.423350   0.541448   0.390435  -0.415301  -0.043750   0.541430
     4  C    0.020564   0.085186   0.541863  -0.032578  -0.419863   0.389413
     5  C   -0.027534  -0.004396   0.084787  -0.443315  -0.421601   0.542494
     6  C   -0.444423   0.087641  -0.006648  -0.025175   0.021160   0.087672
     7  C   -0.009321   0.012343  -0.030920  -0.187101  -0.147531   0.418554
     8  C   -0.066355  -0.008730   0.058574  -0.064664   0.026338  -0.147289
     9  C   -0.064470   0.058277  -0.008115  -0.066035  -0.064602  -0.186931
    10  C   -0.186434  -0.030925   0.014410  -0.008208   0.058538  -0.030958
    11  C   -1.487069   0.418550  -0.030954   0.058219  -0.008884   0.012142
    12  C    1.845666  -1.487192  -0.186421  -0.064469  -0.066398  -0.009387
    13  C    8.286429  -0.779172  -0.147376   0.027568  -0.064292   0.058195
    14  C   -0.779172   8.516017   0.410469  -0.143935  -0.185530  -0.030720
    15  C   -0.147376   0.410469   8.507796  -0.771449  -1.491489   0.411166
    16  C    0.027568  -0.143935  -0.771449   8.276740   1.844579  -1.487665
    17  C   -0.064292  -0.185530  -1.491489   1.844579   8.290192  -0.781444
    18  C    0.058195  -0.030720   0.411166  -1.487665  -0.781444   8.516718
    19  C   -0.408008  -0.780633  -1.491292  -0.030966   0.226676  -0.185389
    20  C   -0.028379  -1.487859  -0.771276  -0.413088  -0.030761  -0.143722
    21  C    0.033780   0.058219  -0.147449  -0.027808  -0.407471  -0.779977
    22  C    0.029644  -0.009324  -0.186445   0.228315  -0.024903  -1.486998
    23  C    0.228301  -0.187090  -0.008203   0.029739   0.034006   0.058214
    24  C   -0.024857  -0.147541   0.058538   0.034008   0.029658  -0.008882
    25  H    0.003705  -0.003204   0.000332   0.000576   0.000109   0.000763
    26  H    0.023165   0.017883   0.000763   0.000105   0.000584   0.000331
    27  H   -0.026158  -0.022120  -0.003181  -0.000865  -0.001116   0.000310
    28  H    0.390678  -0.062985   0.018074  -0.000480  -0.001165   0.000755
    29  H    0.028386  -0.064606  -0.022022  -0.003876   0.003701  -0.003197
    30  H   -0.003888  -0.021645  -0.064239   0.029316   0.023368   0.018057
    31  H   -0.000418   0.018078  -0.064066   0.389658  -0.024981  -0.021610
    32  H   -0.000853  -0.003199  -0.022045  -0.025162   0.390296  -0.064501
    33  H    0.000096   0.000756   0.018061   0.022971   0.028358  -0.063064
    34  H    0.000584   0.000310  -0.003177   0.003735  -0.003675  -0.022063
    35  H   -0.001111   0.000334   0.000761  -0.001196  -0.000538   0.017875
    36  H   -0.001184   0.000762   0.000335  -0.001107  -0.000862  -0.003206
              19         20         21         22         23         24
     1  C   -0.421712  -0.443478  -0.027751   0.020633  -0.032857  -0.419817
     2  C   -0.419741  -0.033052   0.020726  -0.027546  -0.443360  -0.421701
     3  C   -0.043238  -0.415635  -0.423178  -0.444539  -0.025168   0.021138
     4  C   -0.446011  -0.424543  -0.417708  -0.040032   0.019166  -0.027541
     5  C   -0.027359   0.019150  -0.040890  -0.417204  -0.424466  -0.446001
     6  C    0.021009  -0.025180  -0.444631  -0.423142  -0.415291  -0.043652
     7  C   -0.008732   0.058281  -1.487259  -0.779167  -0.143991  -0.185578
     8  C    0.029674   0.034038  -0.025239  -0.407999  -0.030895   0.226687
     9  C    0.034036   0.029746   0.228027  -0.028396  -0.412908  -0.030692
    10  C    0.058574  -0.008120  -0.186408  -0.147332  -0.771528  -1.491493
    11  C   -0.147277  -0.186942  -0.009383   0.058208  -1.487720  -0.781426
    12  C   -0.025280   0.228043   0.029631   0.033783  -0.027818  -0.407451
    13  C   -0.408008  -0.028379   0.033780   0.029644   0.228301  -0.024857
    14  C   -0.780633  -1.487859   0.058219  -0.009324  -0.187090  -0.147541
    15  C   -1.491292  -0.771276  -0.147449  -0.186445  -0.008203   0.058538
    16  C   -0.030966  -0.413088  -0.027808   0.228315   0.029739   0.034008
    17  C    0.226676  -0.030761  -0.407471  -0.024903   0.034006   0.029658
    18  C   -0.185389  -0.143722  -0.779977  -1.486998   0.058214  -0.008882
    19  C    8.289002   1.844370  -0.064248  -0.066350  -0.064646   0.026339
    20  C    1.844370   8.276601   0.027586  -0.064467  -0.066035  -0.064619
    21  C   -0.064248   0.027586   8.287466   1.845669  -0.064473  -0.066403
    22  C   -0.066350  -0.064467   1.845669   8.286212   0.027548  -0.064301
    23  C   -0.064646  -0.066035  -0.064473   0.027548   8.276663   1.844657
    24  C    0.026339  -0.064619  -0.066403  -0.064301   1.844657   8.290237
    25  H   -0.000864  -0.001107  -0.001178  -0.000420   0.389652  -0.024986
    26  H   -0.000536  -0.001192  -0.001112  -0.000853  -0.025154   0.390316
    27  H   -0.003689   0.003730   0.000584   0.000096   0.022968   0.028350
    28  H    0.028414   0.022963   0.000096   0.000584   0.003734  -0.003675
    29  H    0.390241  -0.025027  -0.000851  -0.001111  -0.001195  -0.000537
    30  H   -0.024833   0.389687  -0.000427  -0.001184  -0.001107  -0.000863
    31  H    0.023311   0.029314  -0.003860   0.003707   0.000576   0.000109
    32  H    0.003705  -0.003858   0.028327   0.023158   0.000105   0.000584
    33  H   -0.001167  -0.000488   0.390768  -0.026165  -0.000865  -0.001116
    34  H   -0.001115  -0.000865  -0.026169   0.390662  -0.000481  -0.001166
    35  H    0.000584   0.000106   0.023215   0.028399  -0.003880   0.003699
    36  H    0.000110   0.000576   0.003697  -0.003888   0.029307   0.023374
              25         26         27         28         29         30
     1  C   -0.011580   0.014023   0.014227  -0.011705  -0.007302  -0.001860
     2  C   -0.001864  -0.007248  -0.011747   0.014270   0.014040  -0.011618
     3  C   -0.000889   0.003851  -0.002141  -0.006946  -0.011952   0.014418
     4  C    0.003831  -0.000842  -0.000945   0.003929  -0.002052  -0.007565
     5  C   -0.007515  -0.002072   0.003930  -0.000950  -0.000837   0.003826
     6  C    0.014422  -0.011949  -0.006934  -0.002124   0.003848  -0.000879
     7  C    0.018076  -0.003200   0.000756   0.000310   0.000334   0.000763
     8  C    0.023317   0.003703  -0.001168  -0.001115   0.000583   0.000110
     9  C    0.029306  -0.003862  -0.000488  -0.000865   0.000106   0.000576
    10  C   -0.064066  -0.022054   0.018063  -0.003177   0.000761   0.000334
    11  C   -0.021613  -0.064489  -0.063075  -0.022063   0.017876  -0.003207
    12  C   -0.003860   0.028340   0.390750  -0.026175   0.023208   0.003699
    13  C    0.003705   0.023165  -0.026158   0.390678   0.028386  -0.003888
    14  C   -0.003204   0.017883  -0.022120  -0.062985  -0.064606  -0.021645
    15  C    0.000332   0.000763  -0.003181   0.018074  -0.022022  -0.064239
    16  C    0.000576   0.000105  -0.000865  -0.000480  -0.003876   0.029316
    17  C    0.000109   0.000584  -0.001116  -0.001165   0.003701   0.023368
    18  C    0.000763   0.000331   0.000310   0.000755  -0.003197   0.018057
    19  C   -0.000864  -0.000536  -0.003689   0.028414   0.390241  -0.024833
    20  C   -0.001107  -0.001192   0.003730   0.022963  -0.025027   0.389687
    21  C   -0.001178  -0.001112   0.000584   0.000096  -0.000851  -0.000427
    22  C   -0.000420  -0.000853   0.000096   0.000584  -0.001111  -0.001184
    23  C    0.389652  -0.025154   0.022968   0.003734  -0.001195  -0.001107
    24  C   -0.024986   0.390316   0.028350  -0.003675  -0.000537  -0.000863
    25  H    0.485115  -0.006638   0.000754  -0.000167   0.000034  -0.000020
    26  H   -0.006638   0.484694   0.001153   0.000779  -0.000008   0.000034
    27  H    0.000754   0.001153   0.484955  -0.006839   0.000776  -0.000167
    28  H   -0.000167   0.000779  -0.006839   0.484962   0.001186   0.000748
    29  H    0.000034  -0.000008   0.000776   0.001186   0.484654  -0.006612
    30  H   -0.000020   0.000034  -0.000167   0.000748  -0.006612   0.485084
    31  H    0.000011  -0.000005   0.000032   0.000001   0.000711   0.001377
    32  H   -0.000005   0.000011  -0.000021   0.000034  -0.000162   0.000714
    33  H    0.000032  -0.000021   0.000011  -0.000005   0.000035   0.000001
    34  H    0.000001   0.000034  -0.000005   0.000011  -0.000021   0.000032
    35  H    0.000713  -0.000162   0.000035  -0.000021   0.000011  -0.000005
    36  H    0.001374   0.000715   0.000001   0.000032  -0.000005   0.000011
              31         32         33         34         35         36
     1  C    0.003831  -0.000842  -0.000946   0.003930  -0.002049  -0.007561
     2  C   -0.007519  -0.002075   0.003930  -0.000950  -0.000837   0.003826
     3  C    0.014430  -0.011961  -0.006926  -0.002125   0.003847  -0.000879
     4  C   -0.011570   0.014013   0.014231  -0.011694  -0.007313  -0.001857
     5  C   -0.001866  -0.007238  -0.011758   0.014266   0.014050  -0.011627
     6  C   -0.000889   0.003853  -0.002140  -0.006954  -0.011941   0.014411
     7  C   -0.003205   0.017883  -0.022119  -0.062997  -0.064594  -0.021648
     8  C   -0.000865  -0.000535  -0.003688   0.028405   0.390261  -0.024839
     9  C   -0.001107  -0.001191   0.003728   0.022960  -0.025020   0.389679
    10  C    0.000331   0.000762  -0.003181   0.018076  -0.022032  -0.064239
    11  C    0.000763   0.000330   0.000310   0.000756  -0.003198   0.018055
    12  C   -0.001178  -0.001112   0.000584   0.000096  -0.000852  -0.000429
    13  C   -0.000418  -0.000853   0.000096   0.000584  -0.001111  -0.001184
    14  C    0.018078  -0.003199   0.000756   0.000310   0.000334   0.000762
    15  C   -0.064066  -0.022045   0.018061  -0.003177   0.000761   0.000335
    16  C    0.389658  -0.025162   0.022971   0.003735  -0.001196  -0.001107
    17  C   -0.024981   0.390296   0.028358  -0.003675  -0.000538  -0.000862
    18  C   -0.021610  -0.064501  -0.063064  -0.022063   0.017875  -0.003206
    19  C    0.023311   0.003705  -0.001167  -0.001115   0.000584   0.000110
    20  C    0.029314  -0.003858  -0.000488  -0.000865   0.000106   0.000576
    21  C   -0.003860   0.028327   0.390768  -0.026169   0.023215   0.003697
    22  C    0.003707   0.023158  -0.026165   0.390662   0.028399  -0.003888
    23  C    0.000576   0.000105  -0.000865  -0.000481  -0.003880   0.029307
    24  C    0.000109   0.000584  -0.001116  -0.001166   0.003699   0.023374
    25  H    0.000011  -0.000005   0.000032   0.000001   0.000713   0.001374
    26  H   -0.000005   0.000011  -0.000021   0.000034  -0.000162   0.000715
    27  H    0.000032  -0.000021   0.000011  -0.000005   0.000035   0.000001
    28  H    0.000001   0.000034  -0.000005   0.000011  -0.000021   0.000032
    29  H    0.000711  -0.000162   0.000035  -0.000021   0.000011  -0.000005
    30  H    0.001377   0.000714   0.000001   0.000032  -0.000005   0.000011
    31  H    0.485130  -0.006635   0.000754  -0.000167   0.000034  -0.000020
    32  H   -0.006635   0.484691   0.001151   0.000778  -0.000008   0.000034
    33  H    0.000754   0.001151   0.484955  -0.006838   0.000776  -0.000167
    34  H   -0.000167   0.000778  -0.006838   0.484963   0.001188   0.000748
    35  H    0.000034  -0.000008   0.000776   0.001188   0.484659  -0.006615
    36  H   -0.000020   0.000034  -0.000167   0.000748  -0.006615   0.485069
 Mulliken charges:
               1
     1  C   -0.022933
     2  C   -0.022883
     3  C   -0.023089
     4  C   -0.023014
     5  C   -0.022803
     6  C   -0.023122
     7  C    0.302800
     8  C   -0.313323
     9  C   -0.324420
    10  C    0.313838
    11  C    0.301707
    12  C   -0.323824
    13  C   -0.324949
    14  C    0.302759
    15  C    0.313953
    16  C   -0.325572
    17  C   -0.313032
    18  C    0.301669
    19  C   -0.312957
    20  C   -0.324498
    21  C   -0.323921
    22  C   -0.324852
    23  C   -0.325505
    24  C   -0.313398
    25  H    0.177852
    26  H    0.180912
    27  H    0.179177
    28  H    0.178896
    29  H    0.180883
    30  H    0.177966
    31  H    0.177802
    32  H    0.180970
    33  H    0.179148
    34  H    0.178924
    35  H    0.180823
    36  H    0.178017
 Sum of Mulliken charges =  -0.00000
 Mulliken charges with hydrogens summed into heavy atoms:
               1
     1  C   -0.022933
     2  C   -0.022883
     3  C   -0.023089
     4  C   -0.023014
     5  C   -0.022803
     6  C   -0.023122
     7  C    0.302800
     8  C   -0.132500
     9  C   -0.146403
    10  C    0.313838
    11  C    0.301707
    12  C   -0.144648
    13  C   -0.146053
    14  C    0.302759
    15  C    0.313953
    16  C   -0.147770
    17  C   -0.132062
    18  C    0.301669
    19  C   -0.132074
    20  C   -0.146533
    21  C   -0.144772
    22  C   -0.145927
    23  C   -0.147653
    24  C   -0.132486
 Electronic spatial extent (au):  <R**2>=           6131.7041
 Charge=             -0.0000 electrons
 Dipole moment (field-independent basis, Debye):
    X=             -0.0001    Y=             -0.0001    Z=              0.0019  Tot=              0.0019
 Quadrupole moment (field-independent basis, Debye-Ang):
   XX=           -116.5594   YY=           -116.5604   ZZ=           -145.6982
   XY=             -0.0044   XZ=              0.3344   YZ=              0.3690
 Traceless Quadrupole moment (field-independent basis, Debye-Ang):
   XX=              9.7132   YY=              9.7123   ZZ=            -19.4255
   XY=             -0.0044   XZ=              0.3344   YZ=              0.3690
 Octapole moment (field-independent basis, Debye-Ang**2):
  XXX=             -0.0029  YYY=             -0.0035  ZZZ=              0.0025  XYY=             -0.0008
  XXY=             -0.0012  XXZ=              0.0247  XZZ=              0.0001  YZZ=              0.0001
  YYZ=              0.0332  XYZ=              0.0151
 Hexadecapole moment (field-independent basis, Debye-Ang**3):
 XXXX=          -3784.5779 YYYY=          -3784.6050 ZZZZ=           -168.8103 XXXY=             -0.1195
 XXXZ=              8.7616 YYYX=             -0.0807 YYYZ=              9.6736 ZZZX=              2.5350
 ZZZY=              2.7970 XXYY=          -1261.4854 XXZZ=           -823.6816 YYZZ=           -823.6818
 XXYZ=              3.2326 YYXZ=              2.9362 ZZXY=             -0.0054
 N-N= 1.837859650155D+03 E-N=-5.814698328937D+03  KE= 9.179381074037D+02
 PrsmSu:  requested number of processors reduced to:  26 ShMem   1 Linda.
 Calling FoFJK, ICntrl=      2127 FMM=F ISym2X=0 I1Cent= 0 IOpClX= 0 NMat=1 NMatS=1 NMatT=0.
 ***** Axes restored to original set *****
 -------------------------------------------------------------------
 Center     Atomic                   Forces (Hartrees/Bohr)
 Number     Number              X              Y              Z
 -------------------------------------------------------------------
      1        6           0.000043099    0.000019920    0.008200312
      2        6           0.000054442   -0.000018128   -0.008149732
      3        6          -0.000007751   -0.000040433    0.007550236
      4        6          -0.000042438   -0.000020296   -0.008207709
      5        6          -0.000053994    0.000019391    0.008142209
      6        6           0.000007815    0.000040168   -0.007564223
      7        6          -0.000026616    0.000047446   -0.001891563
      8        6           0.000155075   -0.000063284   -0.000861361
      9        6          -0.000039908   -0.000169722   -0.001457169
     10        6          -0.000010372    0.000026937    0.002548264
     11        6           0.000031986    0.000042301   -0.001826937
     12        6          -0.000001640   -0.000028990    0.000187117
     13        6          -0.000007544    0.000039905   -0.000422099
     14        6           0.000025728   -0.000048452    0.001884415
     15        6           0.000009767   -0.000026461   -0.002564034
     16        6          -0.000047150    0.000206240    0.001618280
     17        6           0.000182528    0.000095903    0.001022149
     18        6          -0.000032428   -0.000042571    0.001819807
     19        6          -0.000163948    0.000070072    0.000904834
     20        6           0.000039196    0.000179915    0.001500565
     21        6           0.000001042    0.000027568   -0.000190950
     22        6           0.000007078   -0.000038862    0.000417854
     23        6           0.000048921   -0.000195114   -0.001575499
     24        6          -0.000172960   -0.000089457   -0.000979306
     25        1           0.000014638    0.000167006    0.000747269
     26        1           0.000125168    0.000088993    0.000922461
     27        1          -0.000010683   -0.000013482    0.000156982
     28        1          -0.000005057    0.000012460   -0.000002795
     29        1           0.000111224   -0.000078171   -0.000873369
     30        1           0.000008417   -0.000144739   -0.000697518
     31        1          -0.000014935   -0.000178644   -0.000775315
     32        1          -0.000135466   -0.000094864   -0.000950417
     33        1           0.000011205    0.000013792   -0.000153376
[...]
 5,0.00288858,0.00001155,-0.00104740,-0.03731421,-0.00002090,-0.0000337
 9,0.00435641,0.00000883,-0.00003847,0.00920051,-0.00000285,-0.00000147
 ,-0.00016759,0.00001206,0.00001155,-0.00261891,-0.00000338,0.00000207,
 0.00022314,-0.00000121,-0.00000118,-0.00060518,0.00000095,0.00000021,0
 .00001018,-0.00000071,0.00000073,-0.00005564,-0.00000007,-0.00000015,0
 .00000648,0.00000007,0.,0.00000671,-0.00000010,0.00000004,-0.00000145,
 0.00000004,-0.00000023,0.00001575,-0.00000053,0.00000012,0.00013991,-0
 .00000260,0.00000026,0.00024647,0.00001221,0.00116805,0.02537473,-0.00
 005685,-0.00002729,0.00000385,0.00008987,-0.00003280,-0.00000917,0.000
 14034,0.00050320,0.00003453,0.00116665,0.00064044,-0.00004061,-0.00001
 390,0.00035770,0.00002000,-0.00000853,-0.00006287,-0.00000754,0.000306
 70,0.00017108,-0.00000355,-0.00007311,-0.00011424,-0.00000012,0.000131
 53,-0.00002261,-0.00000037,-0.00009810,0.00004759,0.00000046,0.0000546
 2,-0.00008273,-0.00000072,-0.00004154,0.00007008,0.00000018,-0.0000413
 8,-0.00009067,-0.00000128,0.00006938,0.00019403,0.00000335,-0.00249300
 ,0.00415288,-0.00000601,-0.01843958,-0.01660107,-0.00005294,-0.2682780
 9,-0.12044480,-0.00047504,0.00244710,0.00214863,0.00002781,-0.00044305
 ,0.00022444,-0.00000207,-0.00047894,-0.00116430,-0.00000132,0.00098695
 ,0.00144503,0.00000265,-0.00002674,-0.00047243,-0.00000041,0.00006470,
 -0.00001220,0.00000041,-0.00002445,0.00006601,0.00000077,0.00000233,-0
 .00000861,0.00000006,-0.00000847,-0.00000515,-0.00000002,-0.00000873,-
 0.00000847,-0.00000012,-0.00000415,0.00000625,0.00000002,-0.00012437,-
 0.00007007,0.00000040,-0.00000313,0.00005249,0.00000042,0.00070901,0.0
 0035254,0.00000113,0.28432896,0.00013743,0.00005996,0.00001802,-0.0001
 8380,0.00003977,-0.00001763,0.00084156,-0.00053509,0.00004198,0.001800
 82,-0.00540377,-0.00010028,-0.00168840,-0.00001080,0.00004322,0.000200
 23,-0.00044388,-0.00002681,-0.00007424,0.00006865,-0.00001078,0.000121
 96,0.00011501,0.00000215,-0.00006596,-0.00004777,-0.00000220,-0.000098
 91,-0.00003670,0.00000541,-0.00011257,0.00003704,-0.00000343,0.0000933
 3,-0.00011690,0.00000006,0.00003693,0.00014838,0.00000007,-0.00007279,
 -0.00025049,0.00000090,0.00329230,-0.00129335,-0.00004752,0.01572751,0
 .01156769,0.00003708,-0.12135617,-0.12895591,-0.00035124,-0.02808479,-
 0.01046573,-0.00001710,0.00028670,0.00007263,0.00000210,0.00022009,0.0
 0063460,0.00000215,-0.00183593,0.00123281,0.00000777,0.00039524,0.0000
 8118,0.00000340,-0.00001094,-0.00005562,-0.00000073,0.00000437,-0.0000
 1567,0.00000092,-0.00001534,-0.00001153,0.,-0.00000515,-0.00000198,0.0
 0000006,-0.00000594,-0.00000033,-0.00000011,-0.00000495,0.00000014,-0.
 00000010,0.00007003,0.00003900,0.00000021,-0.00000556,-0.00002178,0.00
 000012,-0.00023620,0.00077755,0.00001954,0.12932179,0.13317981,-0.0000
 0185,0.00000111,0.00012029,0.00000021,0.00000317,-0.00084509,0.0000106
 6,-0.00000014,-0.00073717,-0.00000224,-0.00003138,0.00476675,-0.000003
 25,-0.00000164,0.00018406,-0.00000056,-0.00000084,-0.00006441,0.000000
 39,-0.00000096,0.00002357,0.00000103,0.00000132,0.00002185,-0.00000133
 ,-0.00000086,0.00000143,0.00000113,0.00000005,-0.00001139,-0.00000141,
 -0.00000027,0.00000621,0.00000131,-0.00000226,0.00000120,0.00000092,0.
 00000273,0.00006467,-0.00000069,-0.00000547,0.00012326,0.00001845,-0.0
 0003216,0.00918767,0.00003417,0.00002148,0.00435587,-0.00047073,-0.000
 35856,-0.03734890,-0.00009598,-0.00002702,0.00288924,0.00000216,0.0000
 0550,-0.00060362,-0.00000399,0.00000027,0.00022114,-0.00000290,0.00000
 995,-0.00261772,0.00000215,0.00000241,-0.00016788,-0.00000047,0.000000
 15,-0.00005566,0.00000018,-0.00000072,0.00001031,-0.00000007,-0.000000
 16,0.00000669,0.,0.00000006,0.00000644,-0.00000017,-0.00000002,-0.0000
 0280,-0.00000004,0.00000001,-0.00000145,-0.00000046,0.00000014,-0.0000
 2215,0.00000017,-0.00000104,0.00013917,0.00000170,0.00002429,-0.005477
 76,0.00050682,0.00039417,0.02542623,0.00007986,0.00005977,0.00001770,-
 0.00028017,0.00035630,-0.00002441,-0.00059159,-0.00136416,0.00004269,-
 0.00273579,0.00404274,-0.00006587,0.00021757,0.00080257,0.00005456,-0.
 00004197,-0.00010670,-0.00002262,0.00163053,0.00092248,-0.00001666,-0.
 00005045,-0.00002689,0.00000193,0.00016505,-0.00006502,-0.00000187,-0.
 00011782,0.00003646,0.00000339,-0.00004348,-0.00005639,-0.00000336,0.0
 0001285,-0.00001719,0.00000110,-0.00003596,0.00004766,-0.00000024,-0.0
 0007510,-0.00011400,0.00000444,0.00017359,0.00000440,-0.00001134,0.000
 02062,0.00036140,0.00000416,0.00102635,-0.00185730,-0.00001224,-0.0184
 7091,-0.01600629,-0.00001568,-0.00004098,0.00003405,-0.00000178,0.0000
 7193,0.00003820,0.00000179,-0.26854181,-0.12119222,-0.00044794,0.00372
 093,0.00293242,0.00002411,0.00007812,-0.00003151,-0.00000087,-0.000027
 57,0.00008537,0.00000065,-0.00000029,-0.00000719,-0.00000010,-0.000008
 73,-0.00000593,-0.00000017,-0.00000815,-0.00000535,0.00000007,-0.00001
 867,-0.00000350,0.00000007,-0.00000399,0.00000500,0.00000004,-0.000025
 76,0.00002984,-0.00000005,-0.00003775,0.00003277,0.00000066,0.00015670
 ,0.00128547,0.00000523,0.28299084,-0.00010600,-0.00007563,-0.00000666,
 0.00009353,-0.00017726,0.00000620,0.00068826,0.00056461,-0.00000426,0.
 00287302,-0.00152841,-0.00002389,0.00044939,-0.00061366,0.00000835,0.0
 0004210,0.00017072,0.00000600,0.00177637,-0.00539364,-0.00005996,-0.00
 140719,0.00020427,0.00000151,-0.00012514,-0.00053234,-0.00000190,0.000
 29940,-0.00006436,0.00000052,-0.00002589,0.00013415,0.00000203,0.00004
 419,-0.00005225,-0.00000029,0.00004582,0.00004384,0.00000112,0.0000342
 3,-0.00005919,-0.00000272,0.00024657,0.00020525,0.00000259,-0.00049721
 ,0.00003310,0.00000032,0.00143372,0.00122758,0.00001356,0.01421767,0.0
 1040874,0.00002775,0.00007676,0.00012412,0.00000113,-0.00019714,-0.000
 02923,-0.00000085,-0.12029234,-0.12871784,-0.00032508,-0.02938291,-0.0
 1055478,-0.00005013,-0.00015902,0.00002944,-0.00000080,0.00006134,-0.0
 0013081,-0.00000078,0.00000411,-0.00000358,0.00000004,-0.00000848,-0.0
 0000033,-0.00000004,-0.00000534,-0.00000231,-0.00000004,0.00000349,0.0
 0000922,0.00000004,-0.00000630,0.00000016,0.,0.00001079,-0.00000228,-0
 .00000022,-0.00002542,0.00001262,-0.00000046,-0.00046662,-0.00031867,-
 0.00000242,0.13009545,0.13454422,-0.00000027,-0.00000329,0.00011966,0.
 00000012,-0.00000145,-0.00006350,0.00000217,0.00000356,0.00018389,0.00
 000624,-0.00002746,0.00476710,0.00000520,0.00000857,-0.00073914,0.0000
 0034,0.00000394,-0.00084490,0.00001420,-0.00004420,0.00918784,-0.00000
 861,-0.00000421,0.00022180,0.00000377,-0.00000070,-0.00060402,-0.00000
 315,0.00000137,0.00012328,-0.00000095,-0.00000032,0.00000651,-0.000000
 42,0.00000030,0.00001017,0.00000001,-0.00000028,-0.00005556,0.00000093
 ,0.00000117,-0.00001175,-0.00000015,0.00000165,0.00002411,0.00000059,0
 .00000019,-0.00016792,0.00000370,0.00001693,-0.00261668,0.00005627,0.0
 0001242,0.00288460,-0.00000097,-0.00000031,0.00000163,0.00000070,-0.00
 000022,0.00002164,-0.00043416,-0.00030248,-0.03735023,-0.00011526,-0.0
 0007247,0.00435452,0.00000222,-0.00000081,0.00006467,-0.00000084,0.000
 00163,0.00000117,0.00000002,0.,-0.00000145,-0.00000013,-0.00000010,-0.
 00000280,0.00000008,-0.00000004,0.00000647,-0.00000009,0.00000005,0.00
 000666,-0.00000002,-0.00000010,-0.00000147,0.00000009,0.00000015,0.000
 01575,-0.00000057,-0.00000101,0.00013984,-0.00000140,-0.00000110,0.000
 24571,0.00046485,0.00038909,0.02542845,-0.00027808,-0.00035690,0.00002
 465,0.00007931,-0.00005967,-0.00001789,-0.00004221,0.00010682,0.000023
 12,0.00021725,-0.00080089,-0.00005440,-0.00272387,-0.00404083,0.000062
 47,-0.00059496,0.00136397,-0.00004354,-0.01846499,0.01601935,0.0000041
 1,0.00101745,0.00184092,0.00001413,0.00002013,-0.00036543,-0.00000418,
 0.00017329,-0.00000362,0.00001166,-0.00007514,0.00011371,-0.00000462,-
 0.00003573,-0.00004746,0.00000023,0.00001263,0.00001711,-0.00000105,-0
 .00004326,0.00005623,0.00000327,-0.00011781,-0.00003539,-0.00000356,0.
 00016539,0.00006428,0.00000232,-0.00005221,0.00002589,-0.00000219,0.00
 163201,-0.00091127,0.00001292,-0.00002710,-0.00008531,-0.00000059,0.00
 007775,0.00003171,0.00000087,0.00370220,-0.00294771,-0.00002454,-0.268
 61497,0.12124799,0.00032590,0.00007134,-0.00003861,-0.00000182,-0.0000
 4199,-0.00003407,0.00000178,-0.00002557,-0.00002977,0.00000004,-0.0000
 0416,-0.00000495,-0.00000004,-0.00001867,0.00000350,-0.00000009,-0.000
 00807,0.00000538,-0.00000008,-0.00000868,0.00000599,0.00000016,-0.0000
 0033,0.00000716,0.00000009,-0.00000185,0.00000069,-0.00000030,0.000003
 21,0.00000893,-0.00000072,0.00081053,0.00029975,0.00000657,0.28307942,
 -0.00009221,-0.00017741,0.00000600,0.00010555,-0.00007563,-0.00000644,
 -0.00004121,0.00017040,0.00000587,-0.00045282,-0.00061523,0.00000835,-
 0.00286516,-0.00152524,-0.00002563,-0.00069194,0.00056401,-0.00000461,
 -0.01422299,0.01041541,0.00002038,-0.00143695,0.00122028,0.00001270,0.
 00049917,0.00003363,0.00000066,-0.00024597,0.00020658,0.00000237,-0.00
 003456,-0.00005963,-0.00000269,-0.00004568,0.00004411,0.00000111,-0.00
 004443,-0.00005236,-0.00000034,0.00002618,0.00013426,0.00000199,-0.000
 29985,-0.00006348,0.00000048,0.00012447,-0.00053451,-0.00000194,0.0014
 1152,0.00020391,0.00000233,-0.00176767,-0.00539808,-0.00006115,-0.0000
 6179,-0.00013058,-0.00000080,0.00015898,0.00002926,-0.00000076,0.02938
 612,-0.01055770,-0.00003439,0.12032681,-0.12875629,-0.00026143,0.00019
 727,-0.00002967,-0.00000073,-0.00007733,0.00012473,0.00000110,-0.00001
 075,-0.00000223,-0.00000022,0.00000625,0.00000014,0.,-0.00000350,0.000
 00921,0.00000005,0.00000538,-0.00000232,-0.00000005,0.00000847,-0.0000
 0036,-0.00000003,-0.00000417,-0.00000354,0.00000005,0.00014075,-0.0000
 8355,0.00000045,-0.00004978,-0.00002848,-0.00000071,-0.00030269,0.0006
 5596,0.00002044,-0.13013877,0.13459109,-0.00000021,-0.00000164,-0.0000
 6473,0.00000024,-0.00000331,0.00011988,0.00000014,0.00000391,-0.000847
 15,-0.00000486,0.00000832,-0.00073785,-0.00001005,-0.00002969,0.004768
 45,-0.00000261,0.00000430,0.00018477,-0.00006801,0.00002060,0.00288792
 ,-0.00000167,0.00001803,-0.00261700,-0.00000058,-0.00000002,-0.0001676
 2,0.00000024,0.00000164,0.00002395,-0.00000104,0.00000127,-0.00001158,
 0.00000002,-0.00000029,-0.00005559,0.00000044,0.00000033,0.00001015,0.
 00000092,-0.00000039,0.00000667,0.00000299,0.00000143,0.00012321,-0.00
 000337,-0.00000071,-0.00060501,0.00000854,-0.00000428,0.00022395,-0.00
 001835,-0.00004443,0.00918980,0.00000083,0.00000166,0.00000130,-0.0000
 0221,-0.00000078,0.00006502,0.00011505,-0.00007453,0.00435272,0.000312
 30,-0.00023779,-0.03740183,-0.00000067,-0.00000032,0.00002176,0.000000
 97,-0.00000032,0.00000146,-0.00000011,0.00000015,0.00001575,0.00000001
 ,-0.00000011,-0.00000143,0.00000008,0.00000005,0.00000667,-0.00000008,
 -0.00000004,0.00000650,0.00000012,-0.00000010,-0.00000285,-0.00000002,
 0.,-0.00000154,0.00000091,-0.00000078,-0.00002247,0.00000009,-0.000000
 11,0.00014000,-0.00000323,0.00002055,-0.00547332,-0.00032867,0.0003202
 0,0.02547462,0.00008846,0.00003463,0.00000923,-0.00005659,0.00002676,-
 0.00000357,-0.00000797,0.00006346,0.00000727,-0.00001684,-0.00035686,-
 0.00001959,0.00116574,-0.00062020,0.00003818,0.00013839,-0.00050116,-0
 .00003361,0.00240957,-0.00216989,-0.00002790,-0.26832078,0.12049478,0.
 00034792,-0.01843685,0.01659201,0.00004066,-0.00247287,-0.00413855,-0.
 00000070,0.00006775,-0.00019154,-0.00000317,-0.00004076,0.00008988,0.0
 0000122,-0.00004071,-0.00006940,-0.00000023,0.00005380,0.00008210,0.00
 000071,-0.00009742,-0.00004749,-0.00000038,0.00013077,0.00002263,0.000
 00039,-0.00007286,0.00011341,0.00000013,0.00030562,-0.00016855,0.00000
 343,-0.00002414,-0.00006550,-0.00000082,0.00006415,0.00001217,-0.00000
 031,-0.00002846,0.00047057,0.00000056,0.00099597,-0.00145229,-0.000000
 69,-0.00048477,0.00116237,0.00000100,-0.00044145,-0.00022665,0.0000020
 4,-0.00000277,-0.00005332,-0.00000051,-0.00012440,0.00007002,-0.000000
 47,-0.00000398,-0.00000631,-0.00000001,-0.00000870,0.00000848,0.000000
 12,-0.00000840,0.00000519,-0.00000002,0.00000222,0.00000858,-0.0000000
 9,-0.00000153,0.00000785,0.,0.00000946,0.00000946,0.00000025,0.0000032
 2,0.00004881,-0.00000020,0.00015571,0.00046798,0.00000136,0.28440849,0
 .00018262,0.00003931,-0.00001728,-0.00013857,0.00006032,0.00001790,-0.
 00020124,-0.00044761,-0.00002698,0.00169857,-0.00001391,0.00004408,-0.
 00179554,-0.00542278,-0.00010095,-0.00085454,-0.00053052,0.00004118,0.
 02808035,-0.01047268,-0.00000171,0.12139217,-0.12901301,-0.00028440,-0
 .01573038,0.01159445,0.00002842,-0.00328905,-0.00128773,-0.00004919,0.
 00007182,-0.00024964,0.00000082,-0.00003679,0.00014839,0.00000006,-0.0
 0009359,-0.00011681,0.00000004,0.00011254,0.00003679,-0.00000340,0.000
 10065,-0.00003724,0.00000544,0.00006596,-0.00004839,-0.00000212,-0.000
 12207,0.00011506,0.00000204,0.00007375,0.00007396,-0.00001066,-0.00000
 421,-0.00001538,0.00000093,0.00001050,-0.00005621,-0.00000071,-0.00039
 137,0.00008292,0.00000321,0.00182936,0.00125073,0.00000880,-0.00022167
 ,0.00063503,0.00000198,-0.00028532,0.00007292,0.00000201,0.00000552,-0
 .00002240,0.00000011,-0.00007007,0.00003900,0.00000014,0.00000500,0.00
 000017,-0.00000010,0.00000599,-0.00000036,-0.00000011,0.00000520,-0.00
 000202,0.00000006,0.00001559,-0.00001171,0.,-0.00000339,-0.00000254,0.
 00000003,-0.00000958,-0.00003730,-0.00000025,-0.00000921,-0.00002848,-
 0.00000011,-0.00128580,-0.00031928,-0.00000177,-0.12934937,0.13321693,
 0.00000027,0.00000321,-0.00084729,0.00000174,0.00000110,0.00012005,0.0
 0000066,-0.00000084,-0.00006459,0.00000308,-0.00000170,0.00018482,0.00
 000040,-0.00003183,0.00476910,-0.00001022,-0.00000011,-0.00073703,0.00
 009553,-0.00002788,0.00289004,0.00034472,-0.00029244,-0.03740150,-0.00
 004766,0.00003100,0.00435286,-0.00002468,-0.00003480,0.00919058,0.0000
 0067,-0.00000558,0.00012327,-0.00000103,0.00000275,0.00006497,-0.00000
 130,-0.00000226,0.00000125,0.00000145,-0.00000016,0.00000657,-0.000001
 11,0.00000002,-0.00001162,0.00000127,-0.00000080,0.00000150,-0.0000009
 8,0.00000126,0.00002178,-0.00000030,-0.00000105,0.00002426,-0.00000019
 ,-0.00000076,0.00001018,0.00000048,0.00000020,-0.00005558,-0.00000205,
 0.00000256,-0.00016719,0.00000475,0.00000925,-0.00261800,0.00000355,0.
 00000094,0.00022289,-0.00000205,0.00000528,-0.00060481,-0.00000026,-0.
 00000108,0.00013990,0.00000041,0.00000019,-0.00002216,0.00000004,0.,-0
 .00000148,0.00000015,-0.00000002,-0.00000285,0.,0.00000006,0.00000649,
 0.00000006,-0.00000015,0.00000667,0.00000007,0.00000003,-0.00000149,-0
 .00000025,-0.00000024,0.00001573,0.00000065,-0.00000068,0.00013947,-0.
 00000526,-0.00000217,0.00024544,-0.00036437,0.00032282,0.02547497,0.00
 056791,0.00135867,0.00003389,-0.00039784,0.00002578,-0.00001849,-0.000
 01711,-0.00016208,0.00001315,0.00014579,0.00014951,-0.00001224,-0.0009
 4866,-0.00022764,0.00001809,-0.00482632,0.00166835,-0.00003315,-0.0048
 0529,-0.00193933,-0.00001252,0.00447096,-0.02895642,-0.00009783,-0.059
 02987,0.00053982,-0.00000902,0.00396244,0.02717608,0.00011575,0.000090
 55,0.00019579,-0.00000673,0.00006448,-0.00020080,0.00000077,0.00003494
 ,0.00012016,-0.00000113,-0.00002857,0.00006141,0.00000480,0.00012487,0
 .00007138,-0.00000258,-0.00016798,-0.00001969,0.00000029,0.00012389,-0
 .00013175,-0.00000022,-0.00022239,0.00023752,0.00000134,-0.00001672,0.
 00005683,-0.00000056,-0.00004737,0.00000932,0.00000059,-0.00027629,-0.
 00037798,0.,0.00076078,-0.00093932,-0.00000400,0.00136527,0.00162389,0
 .00000372,0.00008806,-0.00045623,0.00000009,-0.00055836,-0.00087538,-0
 .00000258,-0.00000312,-0.00000556,0.00000019,-0.00002576,0.00001079,0.
 00000008,-0.00000032,-0.00000418,-0.00000001,0.00000222,0.00001559,0.0
 0000006,0.00000085,-0.00000015,0.00000008,0.00000382,-0.00000126,-0.00
 000005,-0.00000141,0.00000350,-0.00000006,-0.00000176,-0.00013979,-0.0
 0000089,-0.00003799,0.00002530,0.00000047,0.00069293,0.00023615,0.0000
 0175,0.05891338,-0.00069407,-0.00059636,-0.00004142,0.00028869,-0.0000
 5994,0.00001895,0.00000393,0.00002145,-0.00001262,0.00000186,-0.000016
 88,0.00002140,0.00012824,0.00055696,-0.00004456,0.00284013,0.00055718,
 0.00005575,-0.00278642,0.00104348,-0.00000770,0.00336036,-0.01129340,-
 0.00006557,-0.00035076,-0.33807883,-0.00103562,-0.00305914,-0.01203475
 ,-0.00008842,-0.00004520,0.00029040,0.00001010,0.00003414,-0.00002213,
 -0.00000129,0.00007755,0.00004827,0.00000132,-0.00008705,-0.00010568,-
 0.00000312,0.00004090,-0.00003473,0.00000182,0.00000399,0.00001013,-0.
 00000013,-0.00000489,-0.00001627,0.00000076,-0.00002418,0.00004028,-0.
 00000397,0.00005888,0.00002430,0.00000024,-0.00005202,0.00000832,-0.00
 000096,-0.00031968,-0.00009181,0.00000451,0.00044085,-0.00060799,-0.00
 000580,-0.00166779,0.00089787,0.00001724,0.00039990,-0.00003651,-0.000
 00201,0.00087649,0.00039008,0.00000029,0.00005249,-0.00002178,-0.00000
 102,0.00002984,-0.00000228,0.00000016,0.00000715,-0.00000354,0.,0.0000
 0857,-0.00001171,-0.00000016,-0.00000014,-0.00001134,-0.00000013,0.000
 00132,-0.00001287,0.00000010,-0.00000784,-0.00000247,0.00000004,-0.000
 00079,-0.00008295,-0.00000080,-0.00003294,0.00001255,-0.00000103,-0.00
 037409,0.00077000,0.00002386,0.00085172,0.35847298,-0.00000441,-0.0000
 0420,0.00018449,0.00000195,0.00000088,-0.00006424,0.00000236,0.0000008
 0,0.00011945,0.00000005,0.00000252,-0.00084770,-0.00000450,-0.00000204
 ,-0.00073904,0.00001380,-0.00000870,0.00477497,-0.00001677,-0.00003919
 ,0.00919840,0.00002045,-0.00005060,0.00435257,-0.00002369,-0.00103748,
 -0.03733462,0.00000717,-0.00005401,0.00288873,-0.00000162,0.00000135,0
 .00002448,0.00000090,-0.00000144,0.00002179,0.00000028,0.00000157,0.00
 000163,-0.00000107,-0.00000177,-0.00001189,0.00000053,0.00000109,0.000
 00683,-0.00000234,0.00000010,0.00000122,0.00000180,-0.00000250,0.00006
 500,-0.00000401,0.00000265,0.00012330,0.00000069,0.00000069,-0.0000554
 6,-0.00000092,0.00000021,0.00001011,0.00000130,-0.00000139,-0.00060518
 ,0.00000370,0.00000149,0.00022294,-0.00000979,0.00001245,-0.00261870,0
 .00000291,-0.00000163,-0.00016705,0.00000210,-0.00000019,0.00024645,0.
 00000042,0.00000012,0.00013917,-0.00000005,-0.00000021,0.00001575,0.00
 000011,0.00000005,-0.00000152,-0.00000007,0.,0.00000666,0.00000006,-0.
 00000014,0.00000648,0.00000005,0.00000009,-0.00000284,-0.00000001,0.00
 000004,-0.00000148,0.00000033,0.00000036,-0.00002219,-0.00000074,-0.00
 000044,0.00013999,0.00000214,0.00001967,-0.00547720,0.00000692,0.00115
 979,0.02539869\\0.00003940,0.00002972,0.00001779,0.00002222,-0.0000321
 0,-0.00001686,0.00001153,-0.00000514,0.00001102,-0.00003939,-0.0000296
 2,-0.00001763,-0.00002230,0.00003211,0.00001701,-0.00001148,0.00000522
 ,-0.00001133,-0.00002340,0.00001344,-0.00004867,0.00002158,0.00002479,
 0.00005704,-0.00006405,-0.00001116,-0.00005421,-0.00001095,0.00003991,
 0.00005428,0.00001982,0.00002458,-0.00004777,-0.00000769,-0.00001799,-
 0.00000095,0.00000157,0.00003024,0.00000163,0.00002350,-0.00001345,0.0
 0004882,0.00001096,-0.00003996,-0.00005361,-0.00002509,0.00000172,0.00
 004814,0.00001376,0.00000261,-0.00005239,-0.00001979,-0.00002472,0.000
 04789,-0.00002167,-0.00002478,-0.00005796,0.00006405,0.00001118,0.0000
 5407,0.00000767,0.00001804,0.00000136,-0.00000162,-0.00003032,-0.00000
 121,0.00002503,-0.00000170,-0.00004826,-0.00001368,-0.00000254,0.00005
 149,-0.00000183,-0.00000015,0.00000912,0.00000605,-0.00000053,-0.00000
 916,0.00000232,0.00000426,0.00000230,-0.00000614,-0.00000413,-0.000002
 92,-0.00000323,0.,0.00001080,-0.00000292,0.00000085,-0.00001008,0.0000
 0186,0.00000009,-0.00000892,-0.00000615,0.00000053,0.00000964,-0.00000
 232,-0.00000425,-0.00000283,0.00000615,0.00000415,0.00000238,0.0000033
 2,0.,-0.00001031,0.00000292,-0.00000091,0.00001030\\\@


 GARBAGE IN, GARBAGE OUT
 Job cpu time:       4 days  0 hours 37 minutes  7.3 seconds.
 Elapsed time:       0 days  2 hours 30 minutes 36.7 seconds.
 File lengths (MBytes):  RWF=   3946 Int=      0 D2E=      0 Chk=     31 Scr=      1
 Normal termination of Gaussian 16 at Thu Sep  8 14:23:56 2022.
