 Entering Gaussian System, Link 0=g16
 Initial command:
 /project/6004141/group/g16/g16/l1.exe "/scratch/hpham196/GaussianScratch/Gau-160499.inp" -scrdir="/scratch/hpham196/GaussianScratch/"
 Entering Link 1 = /project/6004141/group/g16/g16/l1.exe PID=    160501.
  
 Copyright (c) 1988,1990,1992,1993,1995,1998,2003,2009,2016,
            Gaussian, Inc.  All Rights Reserved.
  
 This is part of the Gaussian(R) 16 program.  It is based on
 the Gaussian(R) 09 system (copyright 2009, Gaussian, Inc.),
 the Gaussian(R) 03 system (copyright 2003, Gaussian, Inc.),
 the Gaussian(R) 98 system (copyright 1998, Gaussian, Inc.),
 the Gaussian(R) 94 system (copyright 1995, Gaussian, Inc.),
 the Gaussian 92(TM) system (copyright 1992, Gaussian, Inc.),
 the Gaussian 90(TM) system (copyright 1990, Gaussian, Inc.),
 the Gaussian 88(TM) system (copyright 1988, Gaussian, Inc.),
 the Gaussian 86(TM) system (copyright 1986, Carnegie Mellon
 University), and the Gaussian 82(TM) system (copyright 1983,
 Carnegie Mellon University). Gaussian is a federally registered
 trademark of Gaussian, Inc.
  
 This software contains proprietary and confidential information,
 including trade secrets, belonging to Gaussian, Inc.
  
 This software is provided under written license and may be
 used, copied, transmitted, or stored only in accord with that
 written license.
  
 The following legend is applicable only to US Government
 contracts under FAR:
  
                    RESTRICTED RIGHTS LEGEND
  
 Use, reproduction and disclosure by the US Government is
 subject to restrictions as set forth in subparagraphs (a)
 and (c) of the Commercial Computer Software - Restricted
 Rights clause in FAR 52.227-19.
  
 Gaussian, Inc.
 340 Quinnipiac St., Bldg. 40, Wallingford CT 06492
  
  
 ---------------------------------------------------------------
 Warning -- This program may not be used in any manner that
 competes with the business of Gaussian, Inc. or will provide
 assistance to any competitor of Gaussian, Inc.  The licensee
 of this program is prohibited from giving any competitor of
 Gaussian, Inc. access to this program.  By using this program,
 the user acknowledges that Gaussian, Inc. is engaged in the
 business of creating and licensing software in the field of
 computational chemistry and represents and warrants to the
 licensee that it is not a competitor of Gaussian, Inc. and that
 it will not use this program in any manner prohibited above.
 ---------------------------------------------------------------
  

 Cite this work as:
 Gaussian 16, Revision A.03,
 M. J. Frisch, G. W. Trucks, H. B. Schlegel, G. E. Scuseria, 
 M. A. Robb, J. R. Cheeseman, G. Scalmani, V. Barone, 
 G. A. Petersson, H. Nakatsuji, X. Li, M. Caricato, A. V. Marenich, 
 J. Bloino, B. G. Janesko, R. Gomperts, B. Mennucci, H. P. Hratchian, 
 J. V. Ortiz, A. F. Izmaylov, J. L. Sonnenberg, D. Williams-Young, 
 F. Ding, F. Lipparini, F. Egidi, J. Goings, B. Peng, A. Petrone, 
 T. Henderson, D. Ranasinghe, V. G. Zakrzewski, J. Gao, N. Rega, 
 G. Zheng, W. Liang, M. Hada, M. Ehara, K. Toyota, R. Fukuda, 
 J. Hasegawa, M. Ishida, T. Nakajima, Y. Honda, O. Kitao, H. Nakai, 
 T. Vreven, K. Throssell, J. A. Montgomery, Jr., J. E. Peralta, 
 F. Ogliaro, M. J. Bearpark, J. J. Heyd, E. N. Brothers, K. N. Kudin, 
 V. N. Staroverov, T. A. Keith, R. Kobayashi, J. Normand, 
 K. Raghavachari, A. P. Rendell, J. C. Burant, S. S. Iyengar, 
 J. Tomasi, M. Cossi, J. M. Millam, M. Klene, C. Adamo, R. Cammi, 
 J. W. Ochterski, R. L. Martin, K. Morokuma, O. Farkas, 
 J. B. Foresman, and D. J. Fox, Gaussian, Inc., Wallingford CT, 2016.
 
 ******************************************
 Gaussian 16:  ES64L-G16RevA.03 25-Dec-2016
                 3-Sep-2022 
 ******************************************
 %NProcShared=40
 Will use up to   40 processors via shared memory.
 %chk=Graphene-3.chk
 --------------------------------------------
 # opt wb97xd/6-311++g(d,p) geom=connectivity
 --------------------------------------------
 1/18=20,19=15,26=3,38=1,57=2/1,3;
 2/9=110,12=2,17=6,18=5,40=1/2;
 3/5=4,6=6,7=1111,11=2,25=1,30=1,71=1,74=-58/1,2,3;
 4//1;
 5/5=2,38=5/2;
 6/7=2,8=2,9=2,10=2,28=1/1;
 7//1,2,3,16;
 1/18=20,19=15,26=3/3(2);
 2/9=110/2;
 99//99;
 2/9=110/2;
 3/5=4,6=6,7=1111,11=2,25=1,30=1,71=1,74=-58/1,2,3;
 4/5=5,16=3,69=1/1;
 5/5=2,38=5/2;
 7//1,2,3,16;
 1/18=20,19=15,26=3/3(-5);
 2/9=110/2;
 6/7=2,8=2,9=2,10=2,19=2,28=1/1;
 99/9=1/99;
 ---------------
 Sixmember-3.cdx
 ---------------
 Symbolic Z-matrix:
 Charge =  0 Multiplicity = 1
 C                     0.        1.22539   4.99878 
 C                     0.        1.22241   3.57925 
 C                     0.        2.48865   2.84817 
 C                     0.        3.71648   3.56058 
 C                     0.        3.67334   5.00742 
 C                     0.        2.49994   5.6849 
 C                     0.        0.        5.67727 
 C                     0.       -1.22539   4.99878 
 C                     0.       -1.22241   3.57925 
 C                     0.        0.        2.91735 
 C                     0.       -2.49994   5.6849 
 C                     0.       -3.67334   5.00742 
 C                     0.       -3.71648   3.56058 
 C                     0.       -2.48865   2.84817 
 C                     0.       -4.91688   2.83875 
 C                     0.       -4.94195   1.43828 
 C                     0.       -3.71112   0.73106 
 C                     0.       -2.52658   1.45858 
 C                     0.       -6.17337   0.67748 
 C                     0.       -6.17337  -0.67748 
 C                     0.       -4.94195  -1.43828 
 C                     0.       -3.71112  -0.73106 
 C                     0.       -4.91688  -2.83875 
 C                     0.       -3.71648  -3.56058 
 C                     0.       -2.48865  -2.84817 
 C                     0.       -2.52658  -1.45858 
 C                     0.       -3.67334  -5.00742 
 C                     0.       -2.49994  -5.6849 
 C                     0.       -1.22539  -4.99878 
 C                     0.       -1.22241  -3.57925 
 C                     0.        0.       -5.67727 
 C                     0.        1.22539  -4.99878 
 C                     0.        1.22241  -3.57925 
 C                     0.        0.       -2.91735 
 C                     0.        2.49994  -5.6849 
 C                     0.        3.67334  -5.00742 
 C                     0.        3.71648  -3.56058 
 C                     0.        2.48865  -2.84817 
 C                     0.        4.91688  -2.83875 
 C                     0.        4.94195  -1.43828 
 C                     0.        3.71112  -0.73106 
 C                     0.        2.52658  -1.45858 
 C                     0.        6.17337  -0.67748 
 C                     0.        6.17337   0.67748 
 C                     0.        4.94195   1.43828 
 C                     0.        3.71112   0.73106 
 C                     0.        4.91688   2.83875 
 C                     0.        2.52658   1.45858 
 H                     0.       -4.61549   5.55028 
 H                     0.       -2.49896   6.77225 
 H                     0.        0.        6.76591 
 H                     0.        2.49896   6.77225 
 H                     0.        4.61549   5.55028 
 H                     0.        5.85962   3.38317 
 H                     0.        7.11456   1.222 
 H                     0.        7.11456  -1.222 
 H                     0.        5.85962  -3.38317 
 H                     0.        4.61549  -5.55028 
 H                     0.        2.49896  -6.77225 
 H                     0.        0.       -6.76591 
 H                     0.       -2.49896  -6.77225 
 H                     0.       -4.61549  -5.55028 
 H                     0.       -5.85962  -3.38317 
 H                     0.       -7.11456  -1.222 
 H                     0.       -7.11456   1.222 
 H                     0.       -5.85962   3.38317 
 H                     0.       -1.59217   0.91874 
 H                     0.        0.        1.83831 
 H                     0.        1.59217   0.91874 
 H                     0.        1.59217  -0.91874 
 H                     0.        0.       -1.83831 
 H                     0.       -1.59217  -0.91874 
 

 GradGradGradGradGradGradGradGradGradGradGradGradGradGradGradGradGradGrad
 Berny optimization.
 Initialization pass.
                           ----------------------------
                           !    Initial Parameters    !
                           ! (Angstroms and Degrees)  !
 --------------------------                            --------------------------
 ! Name  Definition              Value          Derivative Info.                !
 --------------------------------------------------------------------------------
 ! R1    R(1,2)                  1.4195         estimate D2E/DX2                !
 ! R2    R(1,6)                  1.4475         estimate D2E/DX2                !
 ! R3    R(1,7)                  1.4007         estimate D2E/DX2                !
 ! R4    R(2,3)                  1.4621         estimate D2E/DX2                !
 ! R5    R(2,10)                 1.3901         estimate D2E/DX2                !
 ! R6    R(3,4)                  1.4195         estimate D2E/DX2                !
 ! R7    R(3,48)                 1.3901         estimate D2E/DX2                !
 ! R8    R(4,5)                  1.4475         estimate D2E/DX2                !
 ! R9    R(4,47)                 1.4007         estimate D2E/DX2                !
 ! R10   R(5,6)                  1.3549         estimate D2E/DX2                !
 ! R11   R(5,53)                 1.0874         estimate D2E/DX2                !
 ! R12   R(6,52)                 1.0874         estimate D2E/DX2                !
 ! R13   R(7,8)                  1.4007         estimate D2E/DX2                !
 ! R14   R(7,51)                 1.0886         estimate D2E/DX2                !
 ! R15   R(8,9)                  1.4195         estimate D2E/DX2                !
 ! R16   R(8,11)                 1.4475         estimate D2E/DX2                !
 ! R17   R(9,10)                 1.3901         estimate D2E/DX2                !
 ! R18   R(9,14)                 1.4621         estimate D2E/DX2                !
 ! R19   R(10,68)                1.079          estimate D2E/DX2                !
 ! R20   R(11,12)                1.3549         estimate D2E/DX2                !
 ! R21   R(11,50)                1.0874         estimate D2E/DX2                !
 ! R22   R(12,13)                1.4475         estimate D2E/DX2                !
 ! R23   R(12,49)                1.0874         estimate D2E/DX2                !
 ! R24   R(13,14)                1.4195         estimate D2E/DX2                !
 ! R25   R(13,15)                1.4007         estimate D2E/DX2                !
 ! R26   R(14,18)                1.3901         estimate D2E/DX2                !
 ! R27   R(15,16)                1.4007         estimate D2E/DX2                !
 ! R28   R(15,66)                1.0886         estimate D2E/DX2                !
 ! R29   R(16,17)                1.4195         estimate D2E/DX2                !
 ! R30   R(16,19)                1.4475         estimate D2E/DX2                !
 ! R31   R(17,18)                1.3901         estimate D2E/DX2                !
 ! R32   R(17,22)                1.4621         estimate D2E/DX2                !
 ! R33   R(18,67)                1.0791         estimate D2E/DX2                !
 ! R34   R(19,20)                1.355          estimate D2E/DX2                !
 ! R35   R(19,65)                1.0874         estimate D2E/DX2                !
 ! R36   R(20,21)                1.4475         estimate D2E/DX2                !
 ! R37   R(20,64)                1.0874         estimate D2E/DX2                !
 ! R38   R(21,22)                1.4195         estimate D2E/DX2                !
 ! R39   R(21,23)                1.4007         estimate D2E/DX2                !
 ! R40   R(22,26)                1.3901         estimate D2E/DX2                !
 ! R41   R(23,24)                1.4007         estimate D2E/DX2                !
 ! R42   R(23,63)                1.0886         estimate D2E/DX2                !
 ! R43   R(24,25)                1.4195         estimate D2E/DX2                !
 ! R44   R(24,27)                1.4475         estimate D2E/DX2                !
 ! R45   R(25,26)                1.3901         estimate D2E/DX2                !
 ! R46   R(25,30)                1.4621         estimate D2E/DX2                !
 ! R47   R(26,72)                1.0791         estimate D2E/DX2                !
 ! R48   R(27,28)                1.3549         estimate D2E/DX2                !
 ! R49   R(27,62)                1.0874         estimate D2E/DX2                !
 ! R50   R(28,29)                1.4475         estimate D2E/DX2                !
 ! R51   R(28,61)                1.0874         estimate D2E/DX2                !
 ! R52   R(29,30)                1.4195         estimate D2E/DX2                !
 ! R53   R(29,31)                1.4007         estimate D2E/DX2                !
 ! R54   R(30,34)                1.3901         estimate D2E/DX2                !
 ! R55   R(31,32)                1.4007         estimate D2E/DX2                !
 ! R56   R(31,60)                1.0886         estimate D2E/DX2                !
 ! R57   R(32,33)                1.4195         estimate D2E/DX2                !
 ! R58   R(32,35)                1.4475         estimate D2E/DX2                !
 ! R59   R(33,34)                1.3901         estimate D2E/DX2                !
 ! R60   R(33,38)                1.4621         estimate D2E/DX2                !
 ! R61   R(34,71)                1.079          estimate D2E/DX2                !
 ! R62   R(35,36)                1.3549         estimate D2E/DX2                !
 ! R63   R(35,59)                1.0874         estimate D2E/DX2                !
 ! R64   R(36,37)                1.4475         estimate D2E/DX2                !
 ! R65   R(36,58)                1.0874         estimate D2E/DX2                !
 ! R66   R(37,38)                1.4195         estimate D2E/DX2                !
 ! R67   R(37,39)                1.4007         estimate D2E/DX2                !
 ! R68   R(38,42)                1.3901         estimate D2E/DX2                !
 ! R69   R(39,40)                1.4007         estimate D2E/DX2                !
 ! R70   R(39,57)                1.0886         estimate D2E/DX2                !
 ! R71   R(40,41)                1.4195         estimate D2E/DX2                !
 ! R72   R(40,43)                1.4475         estimate D2E/DX2                !
 ! R73   R(41,42)                1.3901         estimate D2E/DX2                !
 ! R74   R(41,46)                1.4621         estimate D2E/DX2                !
 ! R75   R(42,70)                1.0791         estimate D2E/DX2                !
 ! R76   R(43,44)                1.355          estimate D2E/DX2                !
 ! R77   R(43,56)                1.0874         estimate D2E/DX2                !
 ! R78   R(44,45)                1.4475         estimate D2E/DX2                !
 ! R79   R(44,55)                1.0874         estimate D2E/DX2                !
 ! R80   R(45,46)                1.4195         estimate D2E/DX2                !
 ! R81   R(45,47)                1.4007         estimate D2E/DX2                !
 ! R82   R(46,48)                1.3901         estimate D2E/DX2                !
 ! R83   R(47,54)                1.0886         estimate D2E/DX2                !
 ! R84   R(48,69)                1.0791         estimate D2E/DX2                !
 ! A1    A(2,1,6)              118.4148         estimate D2E/DX2                !
 ! A2    A(2,1,7)              118.853          estimate D2E/DX2                !
 ! A3    A(6,1,7)              122.7322         estimate D2E/DX2                !
 ! A4    A(1,2,3)              119.8804         estimate D2E/DX2                !
 ! A5    A(1,2,10)             118.5543         estimate D2E/DX2                !
 ! A6    A(3,2,10)             121.5653         estimate D2E/DX2                !
 ! A7    A(2,3,4)              119.8763         estimate D2E/DX2                !
 ! A8    A(2,3,48)             121.564          estimate D2E/DX2                !
 ! A9    A(4,3,48)             118.5596         estimate D2E/DX2                !
 ! A10   A(3,4,5)              118.4152         estimate D2E/DX2                !
 ! A11   A(3,4,47)             118.8576         estimate D2E/DX2                !
 ! A12   A(5,4,47)             122.7272         estimate D2E/DX2                !
 ! A13   A(4,5,6)              121.7089         estimate D2E/DX2                !
 ! A14   A(4,5,53)             118.2423         estimate D2E/DX2                !
 ! A15   A(6,5,53)             120.0488         estimate D2E/DX2                !
 ! A16   A(1,6,5)              121.7044         estimate D2E/DX2                !
 ! A17   A(1,6,52)             118.243          estimate D2E/DX2                !
 ! A18   A(5,6,52)             120.0527         estimate D2E/DX2                !
 ! A19   A(1,7,8)              122.0537         estimate D2E/DX2                !
 ! A20   A(1,7,51)             118.9732         estimate D2E/DX2                !
 ! A21   A(8,7,51)             118.9732         estimate D2E/DX2                !
 ! A22   A(7,8,9)              118.853          estimate D2E/DX2                !
 ! A23   A(7,8,11)             122.7322         estimate D2E/DX2                !
 ! A24   A(9,8,11)             118.4148         estimate D2E/DX2                !
 ! A25   A(8,9,10)             118.5543         estimate D2E/DX2                !
 ! A26   A(8,9,14)             119.8804         estimate D2E/DX2                !
 ! A27   A(10,9,14)            121.5653         estimate D2E/DX2                !
 ! A28   A(2,10,9)             123.1317         estimate D2E/DX2                !
 ! A29   A(2,10,68)            118.4341         estimate D2E/DX2                !
 ! A30   A(9,10,68)            118.4341         estimate D2E/DX2                !
 ! A31   A(8,11,12)            121.7044         estimate D2E/DX2                !
 ! A32   A(8,11,50)            118.243          estimate D2E/DX2                !
 ! A33   A(12,11,50)           120.0527         estimate D2E/DX2                !
 ! A34   A(11,12,13)           121.7089         estimate D2E/DX2                !
 ! A35   A(11,12,49)           120.0488         estimate D2E/DX2                !
 ! A36   A(13,12,49)           118.2423         estimate D2E/DX2                !
 ! A37   A(12,13,14)           118.4152         estimate D2E/DX2                !
 ! A38   A(12,13,15)           122.7272         estimate D2E/DX2                !
 ! A39   A(14,13,15)           118.8576         estimate D2E/DX2                !
 ! A40   A(9,14,13)            119.8763         estimate D2E/DX2                !
 ! A41   A(9,14,18)            121.564          estimate D2E/DX2                !
 ! A42   A(13,14,18)           118.5596         estimate D2E/DX2                !
 ! A43   A(13,15,16)           122.0448         estimate D2E/DX2                !
 ! A44   A(13,15,66)           118.9746         estimate D2E/DX2                !
 ! A45   A(16,15,66)           118.9806         estimate D2E/DX2                !
 ! A46   A(15,16,17)           118.8556         estimate D2E/DX2                !
 ! A47   A(15,16,19)           122.7345         estimate D2E/DX2                !
 ! A48   A(17,16,19)           118.4099         estimate D2E/DX2                !
 ! A49   A(16,17,18)           118.5615         estimate D2E/DX2                !
 ! A50   A(16,17,22)           119.8811         estimate D2E/DX2                !
 ! A51   A(18,17,22)           121.5573         estimate D2E/DX2                !
 ! A52   A(14,18,17)           123.1209         estimate D2E/DX2                !
 ! A53   A(14,18,67)           118.4528         estimate D2E/DX2                !
 ! A54   A(17,18,67)           118.4263         estimate D2E/DX2                !
 ! A55   A(16,19,20)           121.709          estimate D2E/DX2                !
 ! A56   A(16,19,65)           118.2395         estimate D2E/DX2                !
 ! A57   A(20,19,65)           120.0515         estimate D2E/DX2                !
 ! A58   A(19,20,21)           121.709          estimate D2E/DX2                !
 ! A59   A(19,20,64)           120.0515         estimate D2E/DX2                !
 ! A60   A(21,20,64)           118.2395         estimate D2E/DX2                !
 ! A61   A(20,21,22)           118.4099         estimate D2E/DX2                !
 ! A62   A(20,21,23)           122.7345         estimate D2E/DX2                !
 ! A63   A(22,21,23)           118.8556         estimate D2E/DX2                !
 ! A64   A(17,22,21)           119.8811         estimate D2E/DX2                !
 ! A65   A(17,22,26)           121.5573         estimate D2E/DX2                !
 ! A66   A(21,22,26)           118.5615         estimate D2E/DX2                !
 ! A67   A(21,23,24)           122.0448         estimate D2E/DX2                !
 ! A68   A(21,23,63)           118.9806         estimate D2E/DX2                !
 ! A69   A(24,23,63)           118.9746         estimate D2E/DX2                !
 ! A70   A(23,24,25)           118.8576         estimate D2E/DX2                !
 ! A71   A(23,24,27)           122.7272         estimate D2E/DX2                !
 ! A72   A(25,24,27)           118.4152         estimate D2E/DX2                !
 ! A73   A(24,25,26)           118.5596         estimate D2E/DX2                !
 ! A74   A(24,25,30)           119.8763         estimate D2E/DX2                !
 ! A75   A(26,25,30)           121.564          estimate D2E/DX2                !
 ! A76   A(22,26,25)           123.1209         estimate D2E/DX2                !
 ! A77   A(22,26,72)           118.4263         estimate D2E/DX2                !
 ! A78   A(25,26,72)           118.4528         estimate D2E/DX2                !
 ! A79   A(24,27,28)           121.7089         estimate D2E/DX2                !
 ! A80   A(24,27,62)           118.2423         estimate D2E/DX2                !
 ! A81   A(28,27,62)           120.0488         estimate D2E/DX2                !
 ! A82   A(27,28,29)           121.7044         estimate D2E/DX2                !
 ! A83   A(27,28,61)           120.0527         estimate D2E/DX2                !
 ! A84   A(29,28,61)           118.243          estimate D2E/DX2                !
 ! A85   A(28,29,30)           118.4148         estimate D2E/DX2                !
 ! A86   A(28,29,31)           122.7322         estimate D2E/DX2                !
 ! A87   A(30,29,31)           118.853          estimate D2E/DX2                !
 ! A88   A(25,30,29)           119.8804         estimate D2E/DX2                !
 ! A89   A(25,30,34)           121.5653         estimate D2E/DX2                !
 ! A90   A(29,30,34)           118.5543         estimate D2E/DX2                !
 ! A91   A(29,31,32)           122.0537         estimate D2E/DX2                !
 ! A92   A(29,31,60)           118.9732         estimate D2E/DX2                !
 ! A93   A(32,31,60)           118.9732         estimate D2E/DX2                !
 ! A94   A(31,32,33)           118.853          estimate D2E/DX2                !
 ! A95   A(31,32,35)           122.7322         estimate D2E/DX2                !
 ! A96   A(33,32,35)           118.4148         estimate D2E/DX2                !
 ! A97   A(32,33,34)           118.5543         estimate D2E/DX2                !
 ! A98   A(32,33,38)           119.8804         estimate D2E/DX2                !
 ! A99   A(34,33,38)           121.5653         estimate D2E/DX2                !
 ! A100  A(30,34,33)           123.1317         estimate D2E/DX2                !
 ! A101  A(30,34,71)           118.4341         estimate D2E/DX2                !
 ! A102  A(33,34,71)           118.4341         estimate D2E/DX2                !
 ! A103  A(32,35,36)           121.7044         estimate D2E/DX2                !
 ! A104  A(32,35,59)           118.243          estimate D2E/DX2                !
 ! A105  A(36,35,59)           120.0527         estimate D2E/DX2                !
 ! A106  A(35,36,37)           121.7089         estimate D2E/DX2                !
 ! A107  A(35,36,58)           120.0488         estimate D2E/DX2                !
 ! A108  A(37,36,58)           118.2423         estimate D2E/DX2                !
 ! A109  A(36,37,38)           118.4152         estimate D2E/DX2                !
 ! A110  A(36,37,39)           122.7272         estimate D2E/DX2                !
 ! A111  A(38,37,39)           118.8576         estimate D2E/DX2                !
 ! A112  A(33,38,37)           119.8763         estimate D2E/DX2                !
 ! A113  A(33,38,42)           121.564          estimate D2E/DX2                !
 ! A114  A(37,38,42)           118.5596         estimate D2E/DX2                !
 ! A115  A(37,39,40)           122.0448         estimate D2E/DX2                !
 ! A116  A(37,39,57)           118.9746         estimate D2E/DX2                !
 ! A117  A(40,39,57)           118.9806         estimate D2E/DX2                !
 ! A118  A(39,40,41)           118.8556         estimate D2E/DX2                !
 ! A119  A(39,40,43)           122.7345         estimate D2E/DX2                !
 ! A120  A(41,40,43)           118.4099         estimate D2E/DX2                !
 ! A121  A(40,41,42)           118.5615         estimate D2E/DX2                !
 ! A122  A(40,41,46)           119.8811         estimate D2E/DX2                !
 ! A123  A(42,41,46)           121.5573         estimate D2E/DX2                !
 ! A124  A(38,42,41)           123.1209         estimate D2E/DX2                !
 ! A125  A(38,42,70)           118.4528         estimate D2E/DX2                !
 ! A126  A(41,42,70)           118.4263         estimate D2E/DX2                !
 ! A127  A(40,43,44)           121.709          estimate D2E/DX2                !
 ! A128  A(40,43,56)           118.2395         estimate D2E/DX2                !
 ! A129  A(44,43,56)           120.0515         estimate D2E/DX2                !
 ! A130  A(43,44,45)           121.709          estimate D2E/DX2                !
 ! A131  A(43,44,55)           120.0515         estimate D2E/DX2                !
 ! A132  A(45,44,55)           118.2395         estimate D2E/DX2                !
 ! A133  A(44,45,46)           118.4099         estimate D2E/DX2                !
 ! A134  A(44,45,47)           122.7345         estimate D2E/DX2                !
 ! A135  A(46,45,47)           118.8556         estimate D2E/DX2                !
 ! A136  A(41,46,45)           119.8811         estimate D2E/DX2                !
 ! A137  A(41,46,48)           121.5573         estimate D2E/DX2                !
 ! A138  A(45,46,48)           118.5615         estimate D2E/DX2                !
 ! A139  A(4,47,45)            122.0448         estimate D2E/DX2                !
 ! A140  A(4,47,54)            118.9746         estimate D2E/DX2                !
 ! A141  A(45,47,54)           118.9806         estimate D2E/DX2                !
 ! A142  A(3,48,46)            123.1209         estimate D2E/DX2                !
 ! A143  A(3,48,69)            118.4528         estimate D2E/DX2                !
 ! A144  A(46,48,69)           118.4263         estimate D2E/DX2                !
 ! D1    D(6,1,2,3)              0.0            estimate D2E/DX2                !
 ! D2    D(6,1,2,10)           180.0            estimate D2E/DX2                !
 ! D3    D(7,1,2,3)            180.0            estimate D2E/DX2                !
 ! D4    D(7,1,2,10)             0.0            estimate D2E/DX2                !
 ! D5    D(2,1,6,5)              0.0            estimate D2E/DX2                !
 ! D6    D(2,1,6,52)           180.0            estimate D2E/DX2                !
 ! D7    D(7,1,6,5)            180.0            estimate D2E/DX2                !
 ! D8    D(7,1,6,52)             0.0            estimate D2E/DX2                !
 ! D9    D(2,1,7,8)              0.0            estimate D2E/DX2                !
 ! D10   D(2,1,7,51)           180.0            estimate D2E/DX2                !
 ! D11   D(6,1,7,8)            180.0            estimate D2E/DX2                !
 ! D12   D(6,1,7,51)             0.0            estimate D2E/DX2                !
 ! D13   D(1,2,3,4)              0.0            estimate D2E/DX2                !
 ! D14   D(1,2,3,48)           180.0            estimate D2E/DX2                !
 ! D15   D(10,2,3,4)           180.0            estimate D2E/DX2                !
 ! D16   D(10,2,3,48)            0.0            estimate D2E/DX2                !
 ! D17   D(1,2,10,9)             0.0            estimate D2E/DX2                !
 ! D18   D(1,2,10,68)          180.0            estimate D2E/DX2                !
 ! D19   D(3,2,10,9)           180.0            estimate D2E/DX2                !
 ! D20   D(3,2,10,68)            0.0            estimate D2E/DX2                !
 ! D21   D(2,3,4,5)              0.0            estimate D2E/DX2                !
 ! D22   D(2,3,4,47)           180.0            estimate D2E/DX2                !
 ! D23   D(48,3,4,5)           180.0            estimate D2E/DX2                !
 ! D24   D(48,3,4,47)            0.0            estimate D2E/DX2                !
 ! D25   D(2,3,48,46)          180.0            estimate D2E/DX2                !
 ! D26   D(2,3,48,69)            0.0            estimate D2E/DX2                !
 ! D27   D(4,3,48,46)            0.0            estimate D2E/DX2                !
 ! D28   D(4,3,48,69)          180.0            estimate D2E/DX2                !
 ! D29   D(3,4,5,6)              0.0            estimate D2E/DX2                !
 ! D30   D(3,4,5,53)           180.0            estimate D2E/DX2                !
 ! D31   D(47,4,5,6)           180.0            estimate D2E/DX2                !
 ! D32   D(47,4,5,53)            0.0            estimate D2E/DX2                !
 ! D33   D(3,4,47,45)            0.0            estimate D2E/DX2                !
 ! D34   D(3,4,47,54)          180.0            estimate D2E/DX2                !
 ! D35   D(5,4,47,45)          180.0            estimate D2E/DX2                !
 ! D36   D(5,4,47,54)            0.0            estimate D2E/DX2                !
 ! D37   D(4,5,6,1)              0.0            estimate D2E/DX2                !
 ! D38   D(4,5,6,52)           180.0            estimate D2E/DX2                !
 ! D39   D(53,5,6,1)           180.0            estimate D2E/DX2                !
 ! D40   D(53,5,6,52)            0.0            estimate D2E/DX2                !
 ! D41   D(1,7,8,9)              0.0            estimate D2E/DX2                !
 ! D42   D(1,7,8,11)           180.0            estimate D2E/DX2                !
 ! D43   D(51,7,8,9)           180.0            estimate D2E/DX2                !
 ! D44   D(51,7,8,11)            0.0            estimate D2E/DX2                !
 ! D45   D(7,8,9,10)             0.0            estimate D2E/DX2                !
 ! D46   D(7,8,9,14)           180.0            estimate D2E/DX2                !
 ! D47   D(11,8,9,10)          180.0            estimate D2E/DX2                !
 ! D48   D(11,8,9,14)            0.0            estimate D2E/DX2                !
 ! D49   D(7,8,11,12)          180.0            estimate D2E/DX2                !
 ! D50   D(7,8,11,50)            0.0            estimate D2E/DX2                !
 ! D51   D(9,8,11,12)            0.0            estimate D2E/DX2                !
 ! D52   D(9,8,11,50)          180.0            estimate D2E/DX2                !
 ! D53   D(8,9,10,2)             0.0            estimate D2E/DX2                !
 ! D54   D(8,9,10,68)          180.0            estimate D2E/DX2                !
 ! D55   D(14,9,10,2)          180.0            estimate D2E/DX2                !
 ! D56   D(14,9,10,68)           0.0            estimate D2E/DX2                !
 ! D57   D(8,9,14,13)            0.0            estimate D2E/DX2                !
 ! D58   D(8,9,14,18)          180.0            estimate D2E/DX2                !
 ! D59   D(10,9,14,13)         180.0            estimate D2E/DX2                !
 ! D60   D(10,9,14,18)           0.0            estimate D2E/DX2                !
 ! D61   D(8,11,12,13)           0.0            estimate D2E/DX2                !
 ! D62   D(8,11,12,49)         180.0            estimate D2E/DX2                !
 ! D63   D(50,11,12,13)        180.0            estimate D2E/DX2                !
 ! D64   D(50,11,12,49)          0.0            estimate D2E/DX2                !
 ! D65   D(11,12,13,14)          0.0            estimate D2E/DX2                !
 ! D66   D(11,12,13,15)        180.0            estimate D2E/DX2                !
 ! D67   D(49,12,13,14)        180.0            estimate D2E/DX2                !
 ! D68   D(49,12,13,15)          0.0            estimate D2E/DX2                !
 ! D69   D(12,13,14,9)           0.0            estimate D2E/DX2                !
 ! D70   D(12,13,14,18)        180.0            estimate D2E/DX2                !
 ! D71   D(15,13,14,9)         180.0            estimate D2E/DX2                !
 ! D72   D(15,13,14,18)          0.0            estimate D2E/DX2                !
 ! D73   D(12,13,15,16)        180.0            estimate D2E/DX2                !
 ! D74   D(12,13,15,66)          0.0            estimate D2E/DX2                !
 ! D75   D(14,13,15,16)          0.0            estimate D2E/DX2                !
 ! D76   D(14,13,15,66)        180.0            estimate D2E/DX2                !
 ! D77   D(9,14,18,17)         180.0            estimate D2E/DX2                !
 ! D78   D(9,14,18,67)           0.0            estimate D2E/DX2                !
 ! D79   D(13,14,18,17)          0.0            estimate D2E/DX2                !
 ! D80   D(13,14,18,67)        180.0            estimate D2E/DX2                !
 ! D81   D(13,15,16,17)          0.0            estimate D2E/DX2                !
 ! D82   D(13,15,16,19)        180.0            estimate D2E/DX2                !
 ! D83   D(66,15,16,17)        180.0            estimate D2E/DX2                !
 ! D84   D(66,15,16,19)          0.0            estimate D2E/DX2                !
 ! D85   D(15,16,17,18)          0.0            estimate D2E/DX2                !
 ! D86   D(15,16,17,22)        180.0            estimate D2E/DX2                !
 ! D87   D(19,16,17,18)        180.0            estimate D2E/DX2                !
 ! D88   D(19,16,17,22)          0.0            estimate D2E/DX2                !
 ! D89   D(15,16,19,20)        180.0            estimate D2E/DX2                !
 ! D90   D(15,16,19,65)          0.0            estimate D2E/DX2                !
 ! D91   D(17,16,19,20)          0.0            estimate D2E/DX2                !
 ! D92   D(17,16,19,65)        180.0            estimate D2E/DX2                !
 ! D93   D(16,17,18,14)          0.0            estimate D2E/DX2                !
 ! D94   D(16,17,18,67)        180.0            estimate D2E/DX2                !
 ! D95   D(22,17,18,14)        180.0            estimate D2E/DX2                !
 ! D96   D(22,17,18,67)          0.0            estimate D2E/DX2                !
 ! D97   D(16,17,22,21)          0.0            estimate D2E/DX2                !
 ! D98   D(16,17,22,26)        180.0            estimate D2E/DX2                !
 ! D99   D(18,17,22,21)        180.0            estimate D2E/DX2                !
 ! D100  D(18,17,22,26)          0.0            estimate D2E/DX2                !
 ! D101  D(16,19,20,21)          0.0            estimate D2E/DX2                !
 ! D102  D(16,19,20,64)        180.0            estimate D2E/DX2                !
 ! D103  D(65,19,20,21)        180.0            estimate D2E/DX2                !
 ! D104  D(65,19,20,64)          0.0            estimate D2E/DX2                !
 ! D105  D(19,20,21,22)          0.0            estimate D2E/DX2                !
 ! D106  D(19,20,21,23)        180.0            estimate D2E/DX2                !
 ! D107  D(64,20,21,22)        180.0            estimate D2E/DX2                !
 ! D108  D(64,20,21,23)          0.0            estimate D2E/DX2                !
 ! D109  D(20,21,22,17)          0.0            estimate D2E/DX2                !
 ! D110  D(20,21,22,26)        180.0            estimate D2E/DX2                !
 ! D111  D(23,21,22,17)        180.0            estimate D2E/DX2                !
 ! D112  D(23,21,22,26)          0.0            estimate D2E/DX2                !
 ! D113  D(20,21,23,24)        180.0            estimate D2E/DX2                !
 ! D114  D(20,21,23,63)          0.0            estimate D2E/DX2                !
 ! D115  D(22,21,23,24)          0.0            estimate D2E/DX2                !
 ! D116  D(22,21,23,63)        180.0            estimate D2E/DX2                !
 ! D117  D(17,22,26,25)        180.0            estimate D2E/DX2                !
 ! D118  D(17,22,26,72)          0.0            estimate D2E/DX2                !
 ! D119  D(21,22,26,25)          0.0            estimate D2E/DX2                !
 ! D120  D(21,22,26,72)        180.0            estimate D2E/DX2                !
 ! D121  D(21,23,24,25)          0.0            estimate D2E/DX2                !
 ! D122  D(21,23,24,27)        180.0            estimate D2E/DX2                !
 ! D123  D(63,23,24,25)        180.0            estimate D2E/DX2                !
 ! D124  D(63,23,24,27)          0.0            estimate D2E/DX2                !
 ! D125  D(23,24,25,26)          0.0            estimate D2E/DX2                !
 ! D126  D(23,24,25,30)        180.0            estimate D2E/DX2                !
 ! D127  D(27,24,25,26)        180.0            estimate D2E/DX2                !
 ! D128  D(27,24,25,30)          0.0            estimate D2E/DX2                !
 ! D129  D(23,24,27,28)        180.0            estimate D2E/DX2                !
 ! D130  D(23,24,27,62)          0.0            estimate D2E/DX2                !
 ! D131  D(25,24,27,28)          0.0            estimate D2E/DX2                !
 ! D132  D(25,24,27,62)        180.0            estimate D2E/DX2                !
 ! D133  D(24,25,26,22)          0.0            estimate D2E/DX2                !
 ! D134  D(24,25,26,72)        180.0            estimate D2E/DX2                !
 ! D135  D(30,25,26,22)        180.0            estimate D2E/DX2                !
 ! D136  D(30,25,26,72)          0.0            estimate D2E/DX2                !
 ! D137  D(24,25,30,29)          0.0            estimate D2E/DX2                !
 ! D138  D(24,25,30,34)        180.0            estimate D2E/DX2                !
 ! D139  D(26,25,30,29)        180.0            estimate D2E/DX2                !
 ! D140  D(26,25,30,34)          0.0            estimate D2E/DX2                !
 ! D141  D(24,27,28,29)          0.0            estimate D2E/DX2                !
 ! D142  D(24,27,28,61)        180.0            estimate D2E/DX2                !
 ! D143  D(62,27,28,29)        180.0            estimate D2E/DX2                !
 ! D144  D(62,27,28,61)          0.0            estimate D2E/DX2                !
 ! D145  D(27,28,29,30)          0.0            estimate D2E/DX2                !
 ! D146  D(27,28,29,31)        180.0            estimate D2E/DX2                !
 ! D147  D(61,28,29,30)        180.0            estimate D2E/DX2                !
 ! D148  D(61,28,29,31)          0.0            estimate D2E/DX2                !
 ! D149  D(28,29,30,25)          0.0            estimate D2E/DX2                !
 ! D150  D(28,29,30,34)        180.0            estimate D2E/DX2                !
 ! D151  D(31,29,30,25)        180.0            estimate D2E/DX2                !
 ! D152  D(31,29,30,34)          0.0            estimate D2E/DX2                !
 ! D153  D(28,29,31,32)        180.0            estimate D2E/DX2                !
 ! D154  D(28,29,31,60)          0.0            estimate D2E/DX2                !
 ! D155  D(30,29,31,32)          0.0            estimate D2E/DX2                !
 ! D156  D(30,29,31,60)        180.0            estimate D2E/DX2                !
 ! D157  D(25,30,34,33)        180.0            estimate D2E/DX2                !
 ! D158  D(25,30,34,71)          0.0            estimate D2E/DX2                !
 ! D159  D(29,30,34,33)          0.0            estimate D2E/DX2                !
 ! D160  D(29,30,34,71)        180.0            estimate D2E/DX2                !
 ! D161  D(29,31,32,33)          0.0            estimate D2E/DX2                !
 ! D162  D(29,31,32,35)        180.0            estimate D2E/DX2                !
 ! D163  D(60,31,32,33)        180.0            estimate D2E/DX2                !
 ! D164  D(60,31,32,35)          0.0            estimate D2E/DX2                !
 ! D165  D(31,32,33,34)          0.0            estimate D2E/DX2                !
 ! D166  D(31,32,33,38)        180.0            estimate D2E/DX2                !
 ! D167  D(35,32,33,34)        180.0            estimate D2E/DX2                !
 ! D168  D(35,32,33,38)          0.0            estimate D2E/DX2                !
 ! D169  D(31,32,35,36)        180.0            estimate D2E/DX2                !
 ! D170  D(31,32,35,59)          0.0            estimate D2E/DX2                !
 ! D171  D(33,32,35,36)          0.0            estimate D2E/DX2                !
 ! D172  D(33,32,35,59)        180.0            estimate D2E/DX2                !
 ! D173  D(32,33,34,30)          0.0            estimate D2E/DX2                !
 ! D174  D(32,33,34,71)        180.0            estimate D2E/DX2                !
 ! D175  D(38,33,34,30)        180.0            estimate D2E/DX2                !
 ! D176  D(38,33,34,71)          0.0            estimate D2E/DX2                !
 ! D177  D(32,33,38,37)          0.0            estimate D2E/DX2                !
 ! D178  D(32,33,38,42)        180.0            estimate D2E/DX2                !
 ! D179  D(34,33,38,37)        180.0            estimate D2E/DX2                !
 ! D180  D(34,33,38,42)          0.0            estimate D2E/DX2                !
 ! D181  D(32,35,36,37)          0.0            estimate D2E/DX2                !
 ! D182  D(32,35,36,58)        180.0            estimate D2E/DX2                !
 ! D183  D(59,35,36,37)        180.0            estimate D2E/DX2                !
 ! D184  D(59,35,36,58)          0.0            estimate D2E/DX2                !
 ! D185  D(35,36,37,38)          0.0            estimate D2E/DX2                !
 ! D186  D(35,36,37,39)        180.0            estimate D2E/DX2                !
 ! D187  D(58,36,37,38)        180.0            estimate D2E/DX2                !
 ! D188  D(58,36,37,39)          0.0            estimate D2E/DX2                !
 ! D189  D(36,37,38,33)          0.0            estimate D2E/DX2                !
 ! D190  D(36,37,38,42)        180.0            estimate D2E/DX2                !
 ! D191  D(39,37,38,33)        180.0            estimate D2E/DX2                !
 ! D192  D(39,37,38,42)          0.0            estimate D2E/DX2                !
 ! D193  D(36,37,39,40)        180.0            estimate D2E/DX2                !
 ! D194  D(36,37,39,57)          0.0            estimate D2E/DX2                !
 ! D195  D(38,37,39,40)          0.0            estimate D2E/DX2                !
 ! D196  D(38,37,39,57)        180.0            estimate D2E/DX2                !
 ! D197  D(33,38,42,41)        180.0            estimate D2E/DX2                !
 ! D198  D(33,38,42,70)          0.0            estimate D2E/DX2                !
 ! D199  D(37,38,42,41)          0.0            estimate D2E/DX2                !
 ! D200  D(37,38,42,70)        180.0            estimate D2E/DX2                !
 ! D201  D(37,39,40,41)          0.0            estimate D2E/DX2                !
 ! D202  D(37,39,40,43)        180.0            estimate D2E/DX2                !
 ! D203  D(57,39,40,41)        180.0            estimate D2E/DX2                !
 ! D204  D(57,39,40,43)          0.0            estimate D2E/DX2                !
 ! D205  D(39,40,41,42)          0.0            estimate D2E/DX2                !
 ! D206  D(39,40,41,46)        180.0            estimate D2E/DX2                !
 ! D207  D(43,40,41,42)        180.0            estimate D2E/DX2                !
 ! D208  D(43,40,41,46)          0.0            estimate D2E/DX2                !
 ! D209  D(39,40,43,44)        180.0            estimate D2E/DX2                !
 ! D210  D(39,40,43,56)          0.0            estimate D2E/DX2                !
 ! D211  D(41,40,43,44)          0.0            estimate D2E/DX2                !
 ! D212  D(41,40,43,56)        180.0            estimate D2E/DX2                !
 ! D213  D(40,41,42,38)          0.0            estimate D2E/DX2                !
 ! D214  D(40,41,42,70)        180.0            estimate D2E/DX2                !
 ! D215  D(46,41,42,38)        180.0            estimate D2E/DX2                !
 ! D216  D(46,41,42,70)          0.0            estimate D2E/DX2                !
 ! D217  D(40,41,46,45)          0.0            estimate D2E/DX2                !
 ! D218  D(40,41,46,48)        180.0            estimate D2E/DX2                !
 ! D219  D(42,41,46,45)        180.0            estimate D2E/DX2                !
 ! D220  D(42,41,46,48)          0.0            estimate D2E/DX2                !
 ! D221  D(40,43,44,45)          0.0            estimate D2E/DX2                !
 ! D222  D(40,43,44,55)        180.0            estimate D2E/DX2                !
 ! D223  D(56,43,44,45)        180.0            estimate D2E/DX2                !
 ! D224  D(56,43,44,55)          0.0            estimate D2E/DX2                !
 ! D225  D(43,44,45,46)          0.0            estimate D2E/DX2                !
 ! D226  D(43,44,45,47)        180.0            estimate D2E/DX2                !
 ! D227  D(55,44,45,46)        180.0            estimate D2E/DX2                !
 ! D228  D(55,44,45,47)          0.0            estimate D2E/DX2                !
 ! D229  D(44,45,46,41)          0.0            estimate D2E/DX2                !
 ! D230  D(44,45,46,48)        180.0            estimate D2E/DX2                !
 ! D231  D(47,45,46,41)        180.0            estimate D2E/DX2                !
 ! D232  D(47,45,46,48)          0.0            estimate D2E/DX2                !
 ! D233  D(44,45,47,4)         180.0            estimate D2E/DX2                !
 ! D234  D(44,45,47,54)          0.0            estimate D2E/DX2                !
 ! D235  D(46,45,47,4)           0.0            estimate D2E/DX2                !
 ! D236  D(46,45,47,54)        180.0            estimate D2E/DX2                !
 ! D237  D(41,46,48,3)         180.0            estimate D2E/DX2                !
 ! D238  D(41,46,48,69)          0.0            estimate D2E/DX2                !
 ! D239  D(45,46,48,3)           0.0            estimate D2E/DX2                !
 ! D240  D(45,46,48,69)        180.0            estimate D2E/DX2                !
 --------------------------------------------------------------------------------
 Trust Radius=3.00D-01 FncErr=1.00D-07 GrdErr=1.00D-06 EigMax=2.50D+02 EigMin=1.00D-04
 Number of steps in this run=    432 maximum allowed number of steps=    432.
 GradGradGradGradGradGradGradGradGradGradGradGradGradGradGradGradGradGrad

 Stoichiometry    C48H24
 Framework group  D2H[C2"(HCCH.HCCH),SG(C44H20)]
 Deg. of freedom    36
 Full point group                 D2H     NOp   8
 Largest Abelian subgroup         D2H     NOp   8
 Largest concise Abelian subgroup D2      NOp   4
                         Standard orientation:                         
 ---------------------------------------------------------------------
 Center     Atomic      Atomic             Coordinates (Angstroms)
 Number     Number       Type             X           Y           Z
 ---------------------------------------------------------------------
      1          6           0        0.000000    1.225385    4.998776
      2          6           0        0.000000    1.222408    3.579247
      3          6           0        0.000000    2.488647    2.848168
      4          6           0        0.000000    3.716477    3.560579
      5          6           0        0.000000    3.673335    5.007416
      6          6           0        0.000000    2.499942    5.684901
      7          6           0        0.000000    0.000000    5.677268
      8          6           0       -0.000000   -1.225385    4.998776
      9          6           0       -0.000000   -1.222408    3.579247
     10          6           0        0.000000    0.000000    2.917352
     11          6           0       -0.000000   -2.499942    5.684901
     12          6           0       -0.000000   -3.673335    5.007416
     13          6           0       -0.000000   -3.716477    3.560579
     14          6           0       -0.000000   -2.488647    2.848168
     15          6           0        0.000000   -4.916883    2.838752
     16          6           0        0.000000   -4.941952    1.438281
     17          6           0        0.000000   -3.711118    0.731060
     18          6           0        0.000000   -2.526576    1.458580
     19          6           0        0.000000   -6.173365    0.677478
     20          6           0        0.000000   -6.173365   -0.677478
     21          6           0        0.000000   -4.941952   -1.438281
     22          6           0        0.000000   -3.711118   -0.731060
     23          6           0        0.000000   -4.916883   -2.838752
     24          6           0       -0.000000   -3.716477   -3.560579
     25          6           0       -0.000000   -2.488647   -2.848168
     26          6           0        0.000000   -2.526576   -1.458580
     27          6           0       -0.000000   -3.673335   -5.007416
     28          6           0       -0.000000   -2.499942   -5.684901
     29          6           0       -0.000000   -1.225385   -4.998776
     30          6           0       -0.000000   -1.222408   -3.579247
     31          6           0        0.000000    0.000000   -5.677268
     32          6           0        0.000000    1.225385   -4.998776
     33          6           0        0.000000    1.222408   -3.579247
     34          6           0        0.000000    0.000000   -2.917352
     35          6           0        0.000000    2.499942   -5.684901
     36          6           0        0.000000    3.673335   -5.007416
     37          6           0        0.000000    3.716477   -3.560579
     38          6           0        0.000000    2.488647   -2.848168
     39          6           0        0.000000    4.916883   -2.838752
     40          6           0        0.000000    4.941952   -1.438281
     41          6           0        0.000000    3.711118   -0.731060
     42          6           0        0.000000    2.526576   -1.458580
     43          6           0        0.000000    6.173365   -0.677478
     44          6           0        0.000000    6.173365    0.677478
     45          6           0        0.000000    4.941952    1.438281
     46          6           0        0.000000    3.711118    0.731060
     47          6           0        0.000000    4.916883    2.838752
     48          6           0        0.000000    2.526576    1.458580
     49          1           0        0.000000   -4.615488    5.550278
     50          1           0        0.000000   -2.498961    6.772253
     51          1           0        0.000000    0.000000    6.765911
     52          1           0        0.000000    2.498961    6.772253
     53          1           0        0.000000    4.615488    5.550278
     54          1           0        0.000000    5.859616    3.383174
     55          1           0        0.000000    7.114558    1.222004
     56          1           0        0.000000    7.114558   -1.222004
     57          1           0        0.000000    5.859616   -3.383174
     58          1           0        0.000000    4.615488   -5.550278
     59          1           0        0.000000    2.498961   -6.772253
     60          1           0        0.000000    0.000000   -6.765911
     61          1           0        0.000000   -2.498961   -6.772253
     62          1           0        0.000000   -4.615488   -5.550278
     63          1           0       -0.000000   -5.859616   -3.383174
     64          1           0       -0.000000   -7.114558   -1.222004
     65          1           0       -0.000000   -7.114558    1.222004
     66          1           0       -0.000000   -5.859616    3.383174
     67          1           0        0.000000   -1.592165    0.918742
     68          1           0        0.000000    0.000000    1.838305
     69          1           0        0.000000    1.592165    0.918742
     70          1           0        0.000000    1.592165   -0.918742
     71          1           0        0.000000    0.000000   -1.838305
     72          1           0        0.000000   -1.592165   -0.918742
 ---------------------------------------------------------------------
 Rotational constants (GHZ):           0.0661099           0.0661058           0.0330539
 Standard basis: 6-311++G(d,p) (5D, 7F)
 There are   251 symmetry adapted cartesian basis functions of AG  symmetry.
 There are    73 symmetry adapted cartesian basis functions of B1G symmetry.
 There are    83 symmetry adapted cartesian basis functions of B2G symmetry.
 There are   229 symmetry adapted cartesian basis functions of B3G symmetry.
 There are    73 symmetry adapted cartesian basis functions of AU  symmetry.
 There are   251 symmetry adapted cartesian basis functions of B1U symmetry.
 There are   229 symmetry adapted cartesian basis functions of B2U symmetry.
 There are    83 symmetry adapted cartesian basis functions of B3U symmetry.
 There are   238 symmetry adapted basis functions of AG  symmetry.
 There are    73 symmetry adapted basis functions of B1G symmetry.
 There are    83 symmetry adapted basis functions of B2G symmetry.
 There are   218 symmetry adapted basis functions of B3G symmetry.
 There are    73 symmetry adapted basis functions of AU  symmetry.
 There are   238 symmetry adapted basis functions of B1U symmetry.
 There are   218 symmetry adapted basis functions of B2U symmetry.
 There are    83 symmetry adapted basis functions of B3U symmetry.
  1224 basis functions,  1944 primitive gaussians,  1272 cartesian basis functions
   156 alpha electrons      156 beta electrons
       nuclear repulsion energy      5194.0137863481 Hartrees.
 NAtoms=   72 NActive=   72 NUniq=   20 SFac= 4.00D+00 NAtFMM=   60 NAOKFM=T Big=F
 Integral buffers will be    131072 words long.
 Raffenetti 2 integral format.
 Two-electron integral symmetry is turned on.
 Nuclear repulsion after empirical dispersion term =     5193.9479720039 Hartrees.
 One-electron integrals computed using PRISM.
 PrsmSu:  requested number of processors reduced to:  16 ShMem   1 Linda.
 PrsmSu:  requested number of processors reduced to:  36 ShMem   1 Linda.
 NBasis=  1224 RedAO= T EigKep=  1.09D-06  NBF=   238    73    83   218    73   238   218    83
 NBsUse=  1177 1.00D-06 EigRej=  9.86D-07 NBFU=   228    73    83   205    73   225   207    83
 ExpMin= 3.60D-02 ExpMax= 4.56D+03 ExpMxC= 6.82D+02 IAcc=3 IRadAn=         5 AccDes= 0.00D+00
 Harris functional with IExCor= 4639 and IRadAn=       5 diagonalized for initial guess.
 HarFok:  IExCor= 4639 AccDes= 0.00D+00 IRadAn=         5 IDoV= 1 UseB2=F ITyADJ=14
 ICtDFT=  3500011 ScaDFX=  1.000000  1.000000  1.000000  1.000000
 CalDSu:  requested number of processors reduced to:  35 ShMem   1 Linda.
 FoFCou: FMM=F IPFlag=           0 FMFlag=      100000 FMFlg1=        2000
         NFxFlg=           0 DoJE=T BraDBF=F KetDBF=T FulRan=T
         wScrn=  0.000000 ICntrl=       500 IOpCl=  0 I1Cent=   200000004 NGrid=           0
         NMat0=    1 NMatS0=      1 NMatT0=    0 NMatD0=    1 NMtDS0=    0 NMtDT0=    0
 Petite list used in FoFCou.
 CoulSu:  requested number of processors reduced to:  33 ShMem   1 Linda.
 CoulSu:  requested number of processors reduced to:  34 ShMem   1 Linda.
 Initial guess orbital symmetries:
       Occupied  (B1U) (AG) (B3G) (B1U) (B2U) (AG) (B3G) (AG) (B2U)
                 (B1U) (B2U) (AG) (B3G) (B1U) (AG) (B2U) (B3G)
                 (B1U) (B1U) (AG) (B3G) (B1U) (AG) (B2U) (B3G)
                 (AG) (B2U) (B2U) (B1U) (B3G) (B1U) (AG) (B3G)
                 (B1U) (B2U) (AG) (AG) (B3G) (B2U) (B2U) (B1U)
                 (AG) (B3G) (B2U) (B1U) (B1U) (AG) (B3G) (AG) (B1U)
                 (B2U) (AG) (B3G) (B1U) (B2U) (AG) (B3G) (AG) (B2U)
                 (B1U) (B1U) (B2U) (AG) (B3G) (B2U) (AG) (B1U)
                 (B3G) (B3G) (AG) (B1U) (B2U) (B1U) (B2U) (AG)
                 (B3G) (AG) (B2U) (B2U) (B1U) (AG) (B3G) (B1U)
                 (B3G) (B1U) (B3G) (AG) (AG) (B2U) (B2U) (B1U)
                 (B2U) (B1U) (AG) (B3G) (AG) (B1U) (B2U) (B3G)
                 (AG) (B3G) (B2U) (B1U) (B2U) (AG) (AG) (B3G) (B3G)
                 (AG) (B2U) (B1U) (B3U) (B2U) (AG) (B3G) (B1U)
                 (B2G) (B1G) (B1U) (B2U) (B1U) (AG) (B3G) (B3U)
                 (AU) (B2U) (B1U) (B3G) (AG) (AG) (B1G) (B2G) (B2U)
                 (B3G) (B2U) (B1U) (B3U) (AU) (B3U) (AG) (B3G)
                 (B1U) (B1G) (B2G) (AU) (B3U) (B2G) (B1G) (B1G)
                 (AU) (B2G) (B3U) (B3U) (AU) (B1G) (B2G)
       Virtual   (B3U) (AU) (B1G) (B2G) (B3U) (B2G) (B1G) (AG)
                 (B2U) (B1U) (AU) (B3G) (AG) (AG) (B1G) (B2G) (B2U)
                 (B1U) (AU) (B3U) (AG) (B3G) (B1U) (B2U) (B1U)
                 (B2U) (AU) (B3U) (AG) (B2G) (B3U) (B3U) (B1G)
                 (B2G) (B3G) (AG) (AG) (B3G) (B3U) (AU) (B1U) (B2U)
                 (B1G) (B2G) (AG) (B1U) (B1G) (B2U) (B2G) (B1G)
                 (AG) (B3G) (B2G) (B1U) (B2U) (AG) (B1U) (B3U)
                 (AU) (B1U) (B2U) (B3G) (AG) (B2U) (B3U) (AU) (B3U)
                 (B3G) (AG) (AU) (B1G) (B2G) (AG) (B3G) (B1U) (B2U)
                 (B3U) (B1U) (B3G) (AG) (B2U) (B2U) (B1U) (B3G)
                 (AG) (AG) (B2G) (B1G) (AU) (B3G) (AG) (B2G) (B1G)
                 (B2U) (B1U) (B2U) (B1U) (B3U) (B1U) (B2U) (B1U)
                 (B2U) (AG) (B3G) (B1G) (B2G) (AG) (B1U) (AU) (B3U)
                 (B1G) (B2G) (B3G) (AG) (AG) (B3G) (B2U) (B1U)
                 (AG) (AU) (B3U) (B2U) (B3U) (B2U) (B1U) (AG) (B3G)
                 (AG) (B3G) (B2U) (B1U) (B3U) (AU) (AG) (B1U) (AG)
                 (B3G) (B1U) (B2U) (B3G) (B2G) (B1G) (B2G) (AU)
                 (B3U) (B3G) (AG) (B2U) (B2G) (B1U) (AG) (B1G)
                 (B2G) (B2U) (B1U) (B1U) (AG) (B3G) (B1G) (B1U)
                 (B2U) (AU) (AG) (B3G) (AG) (B2U) (B2G) (B3G) (AG)
                 (B3G) (B2U) (B1U) (B2U) (B1U) (B2U) (AG) (B3G)
                 (AG) (B2U) (B2U) (B1U) (AU) (B3U) (B3G) (B1U)
                 (B1U) (AG) (B3G) (B2U) (B1U) (AG) (B3G) (AG) (B3U)
                 (AU) (B2U) (B1U) (B2U) (B1U) (B3G) (B3G) (AG)
                 (B1U) (AG) (B1G) (B2G) (B2U) (AG) (B3G) (B3G)
                 (B1U) (B2U) (AG) (B3G) (B1U) (B2U) (B1U) (AG)
                 (AG) (B3G) (B2G) (B1U) (B2U) (AG) (B1U) (AU) (B1U)
                 (B2U) (AG) (B3G) (B3G) (AG) (B3G) (B2U) (B1U)
                 (B2U) (B3G) (B3G) (AG) (AG) (B3G) (B1U) (B2U)
                 (B1U) (B1U) (AG) (B2U) (B2U) (B1U) (AG) (B3G)
                 (B2U) (B1U) (B1U) (AG) (B3U) (AG) (B3G) (B1U)
                 (B2U) (B2U) (B1U) (B2G) (B1G) (B3G) (B3G) (AG)
                 (AU) (B3U) (B3G) (B3U) (B2U) (B2G) (B1G) (B2G)
                 (B1G) (AG) (B1U) (B2U) (B3G) (B3G) (AG) (AU) (B3U)
                 (B3G) (AG) (AG) (B1U) (B3U) (AU) (B3U) (B2U) (B2U)
                 (B1U) (B1G) (B2G) (B3G) (AG) (B2U) (B3U) (B1U)
                 (B2U) (B1U) (B2U) (B3G) (AG) (B1G) (B2G) (AG)
                 (B2G) (B1U) (B3G) (AG) (B1G) (B1U) (B2U) (B3G)
                 (AG) (B2U) (B1U) (B3G) (AG) (AU) (B2U) (B1U) (B2U)
                 (AG) (B3G) (B1U) (AU) (B3U) (B1G) (B2G) (B3G)
                 (AU) (B3U) (AG) (B1G) (AG) (AU) (B3U) (B2U) (B1U)
                 (B1G) (B2G) (B1U) (B2G) (B3G) (AG) (AG) (B1U)
                 (B2U) (B1U) (B3U) (AG) (B3G) (B3U) (AU) (AU) (B1U)
                 (B3G) (AG) (B2U) (B1G) (B2G) (B2G) (B2U) (B1U)
                 (B3G) (AG) (B3U) (AU) (B1U) (B2U) (B2G) (B2U)
                 (B1U) (B3G) (B1U) (B1G) (B2G) (AG) (AG) (B3G)
                 (AU) (B1U) (B3G) (AG) (B1U) (B2U) (B2U) (B3G)
                 (AG) (B3U) (B2U) (B1G) (AG) (B3G) (AG) (B1U) (B2U)
                 (B2U) (B1U) (B3G) (AG) (B3G) (B1U) (B2G) (B1G)
                 (B2U) (B1U) (B3U) (AU) (B3G) (B2U) (B2U) (B1U)
                 (AG) (B3G) (AG) (B3G) (AG) (B2U) (B1U) (B1U) (AG)
                 (B2U) (B1U) (B2U) (B3G) (AG) (AU) (B3U) (B1G)
                 (B2G) (B3G) (AG) (B1G) (B3G) (AG) (B1U) (B2U)
                 (AU) (B3G) (AG) (B2U) (B1U) (B3U) (B1U) (B3G)
                 (AG) (B1G) (B2G) (AU) (B3U) (B3G) (B2U) (B2G)
                 (B1G) (B3U) (AU) (B3U) (B1G) (B2G) (B1U) (B2U)
                 (B1U) (AG) (B3G) (B3U) (AU) (B1G) (B2G) (B1U)
                 (B2U) (B1G) (AU) (B3U) (B3G) (B2G) (B1G) (B2G)
                 (B3U) (AU) (AG) (AG) (B3G) (B1U) (AG) (B3G) (B2U)
                 (B1U) (AG) (B2U) (B3G) (AG) (B1U) (B2U) (B1U)
                 (B3G) (AG) (B2U) (B1U) (B2U) (B2U) (B1U) (B3G)
                 (B1U) (B2U) (AG) (B3G) (AG) (B3G) (B3G) (AG) (B3G)
                 (B1U) (AG) (B2U) (B1U) (B1U) (B2U) (B3G) (AG)
                 (AG) (B2G) (B3U) (AU) (B2U) (B1U) (B3G) (AG) (B1U)
                 (B2U) (B1U) (B3U) (B1G) (B2G) (B1G) (B2G) (AG)
                 (B3G) (AU) (B3U) (AU) (AG) (B2U) (B1U) (B2G) (B1G)
                 (B2U) (AU) (B3U) (B2G) (B1G) (B3G) (AG) (B1U)
                 (B2U) (B3G) (B2U) (B3G) (AG) (B1U) (B3U) (AU)
                 (B2U) (AG) (B2U) (B1U) (AG) (B3G) (B2U) (B1U)
                 (B1G) (B2G) (AG) (B3G) (AU) (B3U) (B2G) (B3G)
                 (AG) (B3G) (B1U) (B2U) (B1U) (AG) (B1U) (B3G)
                 (AG) (B2U) (B1U) (AG) (B2U) (B3U) (B3U) (B1G)
                 (B2G) (B1G) (B2G) (B3U) (AU) (B1U) (B3G) (AG)
                 (B2G) (B1G) (B3U) (AU) (B2U) (AG) (B3G) (B1U)
                 (B2U) (B1G) (B2G) (B3U) (AU) (B2U) (B1U) (AU)
                 (B3U) (B3G) (B2U) (B1U) (AG) (B1G) (B2G) (B1G)
                 (AU) (B1U) (B3U) (AG) (B3G) (B1G) (B2G) (AU) (B1U)
                 (B2G) (B3G) (B3G) (B2U) (B1U) (AG) (AG) (B3G)
                 (AG) (B3G) (B2U) (B1U) (B2U) (B2G) (B1G) (B3U)
                 (B3U) (AU) (B3U) (AU) (AG) (AG) (B3G) (B1U) (B1U)
                 (B2U) (B1G) (B2G) (B2U) (B1U) (B3G) (AG) (B1U)
                 (B3G) (B3G) (B2U) (AG) (B2G) (B1G) (B3G) (AG)
                 (B2U) (B1U) (B3U) (AU) (B2U) (AG) (B3G) (B2U)
                 (B1U) (AU) (B2G) (B1G) (B3G) (B2U) (B3U) (B2U)
                 (B1U) (AG) (B3G) (B2G) (AU) (B3U) (AG) (B3G) (B2G)
                 (B2U) (B1U) (B3G) (B1U) (AU) (B2U) (B1U) (B1G)
                 (B3G) (AG) (AG) (B2U) (B1U) (B3G) (AG) (B2U) (B3G)
                 (B2U) (B1U) (B2G) (B1G) (B3U) (AU) (AG) (B3G)
                 (AG) (B2U) (B1U) (B2U) (B1U) (AU) (B3U) (B1U)
                 (B3G) (AG) (B3G) (B2G) (B1G) (AG) (B2G) (B2U)
                 (B1U) (B2U) (AG) (B3G) (AU) (B2U) (B1U) (AG) (B3G)
                 (B1U) (AG) (B3G) (B2U) (AG) (B2U) (B1U) (B3U)
                 (B1G) (B2G) (B1U) (AG) (B3G) (B3U) (AU) (B2U)
                 (B1U) (AG) (B3G) (B1G) (B2G) (AU) (B3U) (B3U)
                 (B3G) (AG) (B1U) (B2U) (B1G) (B2G) (B1U) (B3G)
                 (AG) (AG) (B3G) (B1U) (B2U) (B2U) (B2G) (B1G)
                 (AG) (B3U) (AU) (B1U) (B2U) (B1U) (B3U) (AG) (B3G)
                 (B2U) (B1U) (AG) (AG) (B3G) (B1G) (B1U) (B2U)
                 (B3G) (AG) (B3G) (B1U) (B2U) (B2G) (B2U) (B1U)
                 (AU) (AG) (B3G) (AG) (B1U) (B3U) (B3G) (B1G) (B2G)
                 (AU) (B3U) (B2U) (B1U) (B1G) (B2G) (B3U) (AU)
                 (B1G) (B3G) (AG) (B1G) (B2G) (B3U) (AU) (B2G)
                 (B1U) (AU) (B3U) (AU) (B2G) (B2U) (B1U) (B3G)
                 (B1G) (B2G) (AG) (B3G) (B3U) (AU) (B1G) (B2G)
                 (AU) (B3U) (B2G) (AG) (B2U) (AG) (B3G) (AG) (B2U)
                 (B1U) (B1U) (B1U) (B2U) (B1U) (B2U) (AG) (B3G)
                 (B1U) (B2U) (AG) (B3G) (B3G) (B2U) (AG) (B3G)
                 (B2U) (B1U) (AG) (B3G) (B2U) (B1U) (B3G) (AG)
                 (B2U) (B1U) (AG) (B3G) (B3G) (B1U) (B2U) (B1U)
                 (AG) (B1U) (B2U) (B2U) (B1U) (B3G) (AG) (AG) (B3G)
                 (AG) (B2U) (B3G) (B2U) (B1U) (AG) (B3G) (AG) (B1U)
                 (B2U) (B1U) (B3G) (AG) (B1U) (B2U) (B1U) (B3G)
                 (AG) (B1U) (AG) (B3G) (B2U) (B2U) (B1U) (AG) (B3G)
                 (B3G) (AG) (B1U) (B1U) (B2U) (B3G) (AG) (B1U)
                 (B2U) (AG) (AG) (B3G) (B2U) (B1U) (B1U) (B2U)
                 (AG) (B3G) (B3G) (AG) (B1U) (B2U) (B1U) (B3G)
                 (B1U) (B2U) (AG) (B3G) (B2U) (B1U) (B3G) (AG)
                 (B3G) (B1U) (B2U) (B3G) (AG) (B2U) (B1U) (B3G)
                 (AG) (B2U) (B1U) (AG) (B3G) (AG) (B1U) (B2U) (AG)
                 (B2U) (B1U) (AG) (B3G) (B2U) (B1U) (B3G) (AG)
                 (B1U) (B2U) (B3G) (B2U) (AG) (B3G) (B1U) (B2U)
                 (B3G) (AG) (B2U) (B1U) (B3G) (AG) (B1U) (AG) (B3G)
                 (AG) (B2U) (B1U) (B1U) (B1U) (B2U) (B3G) (AG)
                 (B1U) (B3G)
 The electronic state of the initial guess is 1-AG.
 Requested convergence on RMS density matrix=1.00D-08 within 128 cycles.
 Requested convergence on MAX density matrix=1.00D-06.
 Requested convergence on             energy=1.00D-06.
 No special actions if energy rises.
 CoulSu:  requested number of processors reduced to:  33 ShMem   1 Linda.
 CoulSu:  requested number of processors reduced to:  34 ShMem   1 Linda.
 CoulSu:  requested number of processors reduced to:  35 ShMem   1 Linda.
 CalDSu:  requested number of processors reduced to:  35 ShMem   1 Linda.
 CoulSu:  requested number of processors reduced to:  34 ShMem   1 Linda.
 CoulSu:  requested number of processors reduced to:  35 ShMem   1 Linda.
 CoulSu:  requested number of processors reduced to:  35 ShMem   1 Linda.
 CalDSu:  requested number of processors reduced to:  36 ShMem   1 Linda.
 CoulSu:  requested number of processors reduced to:  34 ShMem   1 Linda.
 CoulSu:  requested number of processors reduced to:  35 ShMem   1 Linda.
 CoulSu:  requested number of processors reduced to:  35 ShMem   1 Linda.
 CalDSu:  requested number of processors reduced to:  35 ShMem   1 Linda.
 CoulSu:  requested number of processors reduced to:  35 ShMem   1 Linda.
 CoulSu:  requested number of processors reduced to:  36 ShMem   1 Linda.
 CoulSu:  requested number of processors reduced to:  36 ShMem   1 Linda.
 CalDSu:  requested number of processors reduced to:  35 ShMem   1 Linda.
 CoulSu:  requested number of processors reduced to:  35 ShMem   1 Linda.
 CoulSu:  requested number of processors reduced to:  36 ShMem   1 Linda.
 CoulSu:  requested number of processors reduced to:  36 ShMem   1 Linda.
 CalDSu:  requested number of processors reduced to:  35 ShMem   1 Linda.
 CoulSu:  requested number of processors reduced to:  36 ShMem   1 Linda.
 CoulSu:  requested number of processors reduced to:  37 ShMem   1 Linda.
 CoulSu:  requested number of processors reduced to:  36 ShMem   1 Linda.
 CalDSu:  requested number of processors reduced to:  35 ShMem   1 Linda.
 CoulSu:  requested number of processors reduced to:  36 ShMem   1 Linda.
 CoulSu:  requested number of processors reduced to:  37 ShMem   1 Linda.
 CoulSu:  requested number of processors reduced to:  36 ShMem   1 Linda.
 CalDSu:  requested number of processors reduced to:  35 ShMem   1 Linda.
 CoulSu:  requested number of processors reduced to:  37 ShMem   1 Linda.
 CoulSu:  requested number of processors reduced to:  38 ShMem   1 Linda.
 CoulSu:  requested number of processors reduced to:  37 ShMem   1 Linda.
 CalDSu:  requested number of processors reduced to:  35 ShMem   1 Linda.
 CoulSu:  requested number of processors reduced to:  37 ShMem   1 Linda.
 CoulSu:  requested number of processors reduced to:  38 ShMem   1 Linda.
 CoulSu:  requested number of processors reduced to:  37 ShMem   1 Linda.
 CalDSu:  requested number of processors reduced to:  35 ShMem   1 Linda.
 CoulSu:  requested number of processors reduced to:  37 ShMem   1 Linda.
 CoulSu:  requested number of processors reduced to:  39 ShMem   1 Linda.
 CoulSu:  requested number of processors reduced to:  37 ShMem   1 Linda.
 CalDSu:  requested number of processors reduced to:  35 ShMem   1 Linda.
 CoulSu:  requested number of processors reduced to:  38 ShMem   1 Linda.
 CoulSu:  requested number of processors reduced to:  38 ShMem   1 Linda.
 CalDSu:  requested number of processors reduced to:  35 ShMem   1 Linda.
 CoulSu:  requested number of processors reduced to:  39 ShMem   1 Linda.
 CoulSu:  requested number of processors reduced to:  38 ShMem   1 Linda.
 CalDSu:  requested number of processors reduced to:  35 ShMem   1 Linda.
 CoulSu:  requested number of processors reduced to:  39 ShMem   1 Linda.
 CalDSu:  requested number of processors reduced to:  35 ShMem   1 Linda.
 SCF Done:  E(RwB97XD) =  -1843.47144546     A.U. after   13 cycles
            NFock= 13  Conv=0.39D-08     -V/T= 2.0044

 **********************************************************************

            Population analysis using the SCF density.

 **********************************************************************

 Orbital symmetries:
       Occupied  (B3G) (AG) (B2U) (B1U) (B2U) (AG) (B3G) (B1U)
                 (B2U) (AG) (B1U) (B3G) (AG) (B2U) (B1U) (B3G)
                 (AG) (B2U) (B1U) (AG) (B3G) (B2U) (B1U) (B3G)
                 (AG) (B2U) (B1U) (B3G) (AG) (B2U) (B1U) (B3G)
                 (AG) (B2U) (AG) (B1U) (B3G) (B1U) (B3G) (B1U)
                 (B2U) (AG) (B1U) (B3G) (AG) (B2U) (B1U) (AG) (AG)
                 (B2U) (B1U) (AG) (B3G) (B2U) (B1U) (AG) (B3G)
                 (AG) (B2U) (B1U) (B2U) (B1U) (AG) (B3G) (B2U)
                 (B3G) (AG) (B1U) (B3G) (AG) (B2U) (B1U) (B1U)
                 (B2U) (AG) (AG) (B3G) (B2U) (B2U) (B1U) (B1U)
                 (AG) (B3G) (B3G) (B1U) (B3G) (AG) (AG) (B2U) (B2U)
                 (B1U) (B2U) (B1U) (AG) (B3G) (AG) (B3G) (B2U)
                 (B1U) (AG) (B3G) (B2U) (B1U) (AG) (B2U) (AG) (B3G)
                 (AG) (B3U) (B3G) (B2U) (B1U) (B1G) (B2G) (B1U)
                 (B1U) (B3G) (AG) (B2U) (B2U) (B1U) (AU) (B3U)
                 (B3G) (AG) (B2U) (B1U) (B1G) (AG) (B2G) (B3G)
                 (AG) (B3G) (B2U) (B2U) (B1U) (B3U) (AU) (B3U)
                 (B1U) (AG) (B3G) (B1G) (B2G) (AU) (B3U) (B2G)
                 (B1G) (B1G) (B2G) (AU) (B3U) (B3U) (AU) (B1G)
                 (B2G)
       Virtual   (AU) (B3U) (B1G) (B2G) (B3U) (B2G) (B1G) (AG)
                 (B2U) (B1U) (B3G) (AG) (AU) (B1U) (B2U) (AG) (B3G)
                 (AG) (B1G) (B2G) (AU) (B3U) (B1U) (B2U) (B1U)
                 (B2U) (AG) (B3G) (AG) (B2G) (AU) (B3U) (B3U) (B3U)
                 (AG) (B3G) (B1G) (B2G) (B1U) (B2U) (AG) (AU) (B3U)
                 (B1U) (B3G) (AG) (B1G) (B2U) (B1G) (B2G) (B1U)
                 (B2U) (B1G) (B2G) (B1U) (AG) (B3G) (AG) (B1U)
                 (B2U) (B2G) (B2U) (AU) (B3U) (B3G) (AG) (AG) (B3G)
                 (B3U) (AU) (B1U) (B3U) (B1G) (B2G) (B1U) (B2U)
                 (AU) (B3G) (B3G) (AG) (B2U) (AG) (B2U) (B1U) (AG)
                 (B2G) (B3U) (B3G) (AG) (B1G) (B2U) (B1U) (B2G)
                 (B1G) (B2U) (B1U) (B1U) (B2U) (B3U) (AU) (B2U)
                 (B1U) (AG) (B3G) (AG) (B1U) (B1G) (B2G) (AU) (B3U)
                 (B3G) (AG) (AG) (B3G) (B2U) (B1U) (B3U) (AU) (B2U)
                 (B1U) (AG) (B3U) (B3G) (AG) (B1G) (B2G) (B2U)
                 (AG) (B3G) (B1U) (B2U) (B1U) (B3U) (AU) (AG) (B3G)
                 (B3G) (AG) (B1G) (B2G) (B2G) (B2U) (B1U) (B2U)
                 (B3G) (AG) (B1U) (B2U) (AG) (B1U) (B1G) (B2G)
                 (AU) (B3U) (AU) (B1G) (AG) (B3G) (B2G) (AG) (B3G)
                 (B1U) (B2U) (AG) (B2U) (B2U) (B1U) (B1U) (B3G)
                 (B2G) (B3G) (AG) (B1U) (B2U) (AG) (B2U) (B3G)
                 (AG) (B1U) (B1U) (B2U) (B1U) (AU) (B3U) (AG) (B3G)
                 (B3G) (B2U) (B1U) (B3U) (AU) (B3G) (AG) (B2U)
                 (B1U) (AG) (B2U) (B3G) (B1U) (B1U) (B2U) (B3G)
                 (AG) (B2G) (B1G) (AG) (B2U) (AG) (B3G) (B2U) (B1U)
                 (B3G) (B3G) (AG) (B1U) (B2U) (B1U) (AG) (B2G)
                 (AG) (B3G) (AU) (AG) (B1U) (B2U) (B1U) (AG) (B3G)
                 (B1U) (B2U) (B3G) (AG) (B3G) (B2U) (B1U) (B2U)
                 (B3G) (AG) (B1U) (B1U) (AG) (B3G) (B1U) (B2U)
                 (AG) (B3G) (B2U) (AG) (B3G) (B2U) (B1U) (AG) (B3G)
                 (B2U) (B1U) (AG) (B3G) (B3U) (B1U) (B2U) (B1U)
                 (B1U) (B2G) (B1G) (B2U) (B3G) (AG) (AU) (B3U)
                 (B2U) (B3U) (B2G) (B1G) (AG) (B3G) (B1G) (B2G)
                 (B3G) (B1U) (B2U) (AU) (B3U) (B3G) (AG) (AG) (B3G)
                 (AG) (B3U) (AU) (B3U) (B1U) (B2U) (B1U) (B1G)
                 (B2G) (B2U) (B3G) (AG) (B3U) (B2U) (B1U) (B2U)
                 (B1G) (B2G) (B2U) (B1U) (B1U) (B1G) (B3G) (AG)
                 (B2G) (AG) (AG) (B3G) (B2U) (B1U) (AU) (B3G) (B2U)
                 (B1U) (B3G) (AG) (AG) (AU) (B3U) (B1G) (B2G) (B1U)
                 (B2U) (B1U) (B2U) (AU) (B3U) (AG) (B3G) (B3G)
                 (B1G) (AG) (AG) (AU) (B3U) (B1G) (B2G) (B1U) (B2G)
                 (B2U) (B1U) (B3U) (B3U) (AU) (AG) (B3G) (AG) (AU)
                 (B2U) (B1U) (AG) (B3G) (B1G) (B2G) (B1U) (B2U)
                 (B2G) (B3G) (AG) (B1U) (B2U) (B1U) (AU) (B3U)
                 (B3G) (AG) (B2G) (B2U) (B1U) (B1G) (B2G) (AG)
                 (B1U) (B2U) (B3G) (AG) (B3G) (B1U) (B1U) (AU)
                 (B3G) (AG) (B1U) (B2U) (B2U) (B3G) (AG) (B2U)
                 (B3U) (AG) (B2U) (B1U) (AG) (B3G) (B1U) (B2U)
                 (B1U) (B1G) (AG) (B3G) (B3G) (B3G) (B2U) (B1U)
                 (B2U) (B1U) (B1G) (B2G) (B2U) (AG) (B3G) (AG)
                 (B3U) (AU) (B2U) (B1U) (B3G) (AG) (B1U) (AG) (B2U)
                 (B1U) (B3G) (AG) (B2U) (AU) (B3U) (B3G) (AG) (B2G)
                 (B1G) (B3G) (AG) (B1U) (B2U) (B1G) (B3G) (AG)
                 (B1U) (B2U) (B1U) (AG) (B3G) (AU) (B3U) (B2U)
                 (B3G) (B1G) (B2G) (AU) (B3U) (B2G) (B1G) (B3U)
                 (AU) (B3U) (B1U) (B2U) (B1G) (B2G) (B1U) (AG)
                 (B3G) (B1U) (B2U) (B1G) (B2G) (B3U) (AU) (B1G)
                 (AU) (B3U) (B3G) (AG) (B2G) (AG) (B3G) (B1U) (B1G)
                 (B2G) (AG) (B3G) (B2U) (B1U) (B3U) (AU) (AG) (B2U)
                 (B3G) (AG) (B1U) (B1U) (B2U) (B3G) (AG) (B2U)
                 (B1U) (B2U) (B2U) (B1U) (B3G) (AG) (B3G) (B1U)
                 (B2U) (AG) (B3G) (B3G) (AG) (B1U) (AG) (B3G) (B1U)
                 (B2U) (B1U) (B3G) (AG) (B2G) (B2U) (B1U) (AG)
                 (B3G) (B1U) (B3U) (AU) (B2U) (AG) (B3U) (AG) (B3G)
                 (B2U) (B1U) (B1G) (B2G) (B2G) (B1G) (AU) (B3U)
                 (AU) (AG) (B2U) (B1U) (B2G) (B1G) (B2U) (AU) (B3U)
                 (B2G) (B1G) (B3G) (B3G) (AG) (B1U) (B2U) (B2U)
                 (B1U) (B3U) (B3G) (AG) (AU) (AG) (B2U) (B1U) (B2U)
                 (AG) (B3G) (B1G) (B2G) (B2U) (B1U) (B2G) (AU)
                 (B3U) (AG) (B3G) (AG) (B3G) (B3G) (B1U) (B2U)
                 (B1U) (AG) (B1U) (AG) (B3G) (B2U) (B1U) (B3U)
                 (AG) (B3U) (B1G) (B2G) (B2U) (B1G) (B2G) (B3U)
                 (AU) (B1U) (B1G) (B2G) (B3G) (AG) (B3U) (AU) (B2U)
                 (AG) (B3G) (B1U) (B2U) (B1G) (B2G) (B3U) (AU)
                 (B2U) (B1U) (B3G) (B3U) (AU) (B2U) (B1U) (B1G)
                 (B2G) (AG) (B1G) (B1U) (B3U) (AU) (AG) (B3G) (B2G)
                 (B1U) (B1G) (B3G) (AU) (B3G) (B2G) (AG) (B3G)
                 (B2U) (B1U) (AG) (B2U) (B1U) (AG) (B3G) (B3U)
                 (B2U) (B2G) (B1G) (AU) (B3U) (B3U) (AU) (AG) (AG)
                 (B3G) (B1U) (B1U) (B2U) (B2U) (B1U) (B1G) (B2G)
                 (B3G) (AG) (B1U) (B3G) (B3G) (B2U) (AG) (B3G)
                 (AG) (B2G) (B1G) (B2U) (B1U) (B3U) (AU) (B2U)
                 (AG) (B3G) (B1U) (B2U) (AU) (B2G) (B1G) (B3G)
                 (B2U) (B2U) (B1U) (AG) (B3G) (B3U) (B2G) (AU)
                 (B3U) (AG) (B3G) (B2G) (B3G) (B2U) (B1U) (B1U)
                 (AU) (B2U) (B1U) (B1G) (B2U) (AG) (B3G) (AG) (B1U)
                 (B3G) (AG) (B2U) (B1U) (B2U) (B3G) (B2G) (B1G)
                 (B3U) (AU) (B3G) (AG) (AG) (B2U) (B1U) (B2U) (B1U)
                 (B3G) (AU) (B3U) (B1U) (AG) (B3G) (B2G) (B1G)
                 (AG) (B2U) (B1U) (B2U) (AG) (B2G) (B3G) (AU) (B2U)
                 (B1U) (AG) (B3G) (B1U) (AG) (B3G) (AG) (B2U) (B1U)
                 (B2U) (B1U) (AG) (B3G) (B3U) (B1G) (B2G) (B2U)
                 (B1U) (AG) (B3G) (AU) (B3U) (B1G) (B2G) (B3G)
                 (AG) (AG) (B1U) (B2U) (AU) (B3U) (B1U) (B3U) (B3G)
                 (B1G) (B2G) (B2U) (B2U) (B1U) (AG) (B3G) (AG)
                 (B1U) (B1U) (B2U) (B3G) (AG) (B2U) (B1U) (AG)
                 (B1G) (B2G) (B1U) (B2U) (B3U) (AU) (B3G) (AG)
                 (B3G) (B3U) (AG) (B3G) (B1U) (B1G) (B2U) (B1U)
                 (B2U) (B1U) (AG) (B3G) (B2G) (AG) (AU) (B3G) (B3U)
                 (B2G) (B1G) (B2U) (B1U) (AU) (B3U) (B3U) (AU)
                 (B1G) (B2G) (B1G) (B3G) (AG) (B1G) (B2G) (B3U)
                 (AU) (B1U) (B2G) (AU) (AU) (B3U) (B2U) (B1U) (B2G)
                 (B3G) (AG) (B3G) (B1G) (B2G) (B3U) (AU) (B1G)
                 (B2G) (AU) (B3U) (B2G) (AG) (B2U) (AG) (B1U) (B3G)
                 (AG) (B2U) (B1U) (B1U) (B1U) (B2U) (B2U) (AG)
                 (B3G) (B1U) (B2U) (AG) (B3G) (B3G) (B2U) (AG)
                 (B3G) (B2U) (B1U) (AG) (B3G) (B3G) (AG) (B2U)
                 (B1U) (B2U) (B1U) (AG) (B3G) (B3G) (B1U) (B2U)
                 (B1U) (AG) (B1U) (B2U) (B2U) (B1U) (B3G) (AG)
                 (AG) (B3G) (AG) (B2U) (B3G) (B2U) (B1U) (AG) (B3G)
                 (AG) (B1U) (B2U) (B1U) (B3G) (AG) (B1U) (B2U)
                 (B1U) (B3G) (AG) (B1U) (AG) (B3G) (B2U) (B2U)
                 (B1U) (AG) (B3G) (B3G) (AG) (B1U) (B1U) (B2U)
                 (B3G) (AG) (B1U) (B2U) (AG) (AG) (B3G) (B2U) (B1U)
                 (B1U) (B2U) (AG) (B3G) (AG) (B3G) (B1U) (B2U)
                 (B1U) (B3G) (B1U) (B2U) (AG) (B3G) (B2U) (B1U)
                 (B3G) (AG) (B3G) (B1U) (B2U) (B3G) (AG) (B2U)
                 (B1U) (B3G) (AG) (B2U) (B1U) (AG) (B3G) (AG) (B1U)
                 (B2U) (AG) (B2U) (B1U) (B3G) (AG) (B2U) (B1U)
                 (B3G) (AG) (B1U) (B2U) (B3G) (B2U) (AG) (B3G)
                 (B1U) (B2U) (B3G) (AG) (B2U) (B1U) (B3G) (AG)
                 (B1U) (AG) (B2U) (B1U) (B3G) (AG) (B1U) (B1U)
                 (B2U) (B3G) (AG) (B1U) (B3G)
 The electronic state is 1-AG.
 Alpha  occ. eigenvalues --  -10.30986 -10.30986 -10.30986 -10.30985 -10.30985
 Alpha  occ. eigenvalues --  -10.30984 -10.30962 -10.30962 -10.30962 -10.30962
 Alpha  occ. eigenvalues --  -10.30962 -10.30961 -10.30925 -10.30924 -10.30924
 Alpha  occ. eigenvalues --  -10.30923 -10.30923 -10.30923 -10.30914 -10.30914
 Alpha  occ. eigenvalues --  -10.30914 -10.30913 -10.30913 -10.30912 -10.30086
 Alpha  occ. eigenvalues --  -10.30086 -10.30086 -10.30086 -10.30086 -10.30086
 Alpha  occ. eigenvalues --  -10.30073 -10.30072 -10.30072 -10.30072 -10.30071
 Alpha  occ. eigenvalues --  -10.30071 -10.30010 -10.30010 -10.30010 -10.30010
 Alpha  occ. eigenvalues --  -10.30010 -10.30010 -10.29674 -10.29674 -10.29673
 Alpha  occ. eigenvalues --  -10.29673 -10.29672 -10.29671  -1.01106  -1.00453
 Alpha  occ. eigenvalues --   -1.00453  -0.98645  -0.98645  -0.96047  -0.95934
 Alpha  occ. eigenvalues --   -0.92827  -0.92826  -0.91690  -0.91134  -0.91133
 Alpha  occ. eigenvalues --   -0.88652  -0.88652  -0.88529  -0.88528  -0.86099
[...]
 Alpha virt. eigenvalues --    0.53817   0.53874   0.55406   0.55407   0.56401
 Alpha virt. eigenvalues --    0.56401   0.57167   0.57168   0.57407   0.57408
 Alpha virt. eigenvalues --    0.57555   0.58335   0.58429   0.58852   0.59375
 Alpha virt. eigenvalues --    0.59375   0.59518   0.59567   0.59567   0.60309
 Alpha virt. eigenvalues --    0.60796   0.60796   0.60967   0.60967   0.61375
 Alpha virt. eigenvalues --    0.61391   0.62273   0.62283   0.62659   0.62845
 Alpha virt. eigenvalues --    0.62845   0.62983   0.63252   0.63259   0.63259
 Alpha virt. eigenvalues --    0.64499   0.64500   0.64928   0.64929   0.65346
 Alpha virt. eigenvalues --    0.65463   0.65465   0.65868   0.66444   0.66444
 Alpha virt. eigenvalues --    0.66862   0.66863   0.66926   0.67319   0.67319
 Alpha virt. eigenvalues --    0.67844   0.67972   0.67972   0.68266   0.69532
 Alpha virt. eigenvalues --    0.69533   0.69888   0.69889   0.70059   0.70295
 Alpha virt. eigenvalues --    0.70295   0.70427   0.70500   0.70749   0.70813
 Alpha virt. eigenvalues --    0.70814   0.71285   0.71446   0.71447   0.72286
 Alpha virt. eigenvalues --    0.72286   0.72730   0.73192   0.73507   0.73509
 Alpha virt. eigenvalues --    0.73789   0.73790   0.73797   0.74185   0.74185
 Alpha virt. eigenvalues --    0.74379   0.74380   0.74821   0.74821   0.75171
 Alpha virt. eigenvalues --    0.75244   0.75245   0.75247   0.75927   0.75927
 Alpha virt. eigenvalues --    0.76703   0.76950   0.77373   0.78084   0.79426
 Alpha virt. eigenvalues --    0.79428   0.79631   0.79631   0.79815   0.80188
 Alpha virt. eigenvalues --    0.81554   0.81555   0.82082   0.82740   0.82740
 Alpha virt. eigenvalues --    0.83136   0.83526   0.83527   0.83672   0.83966
 Alpha virt. eigenvalues --    0.83966   0.84088   0.84090   0.84496   0.84497
 Alpha virt. eigenvalues --    0.84770   0.85109   0.85218   0.85359   0.85360
 Alpha virt. eigenvalues --    0.85464   0.85908   0.85910   0.86016   0.86016
 Alpha virt. eigenvalues --    0.86766   0.86767   0.86840   0.87796   0.87799
 Alpha virt. eigenvalues --    0.88171   0.88172   0.89096   0.89495   0.89496
 Alpha virt. eigenvalues --    0.89998   0.90374   0.90377   0.90708   0.91340
 Alpha virt. eigenvalues --    0.91805   0.93861   0.93861   0.94794   0.94794
 Alpha virt. eigenvalues --    0.96024   0.96761   0.96925   0.98662   0.98975
 Alpha virt. eigenvalues --    0.99492   0.99779   0.99780   0.99900   0.99901
 Alpha virt. eigenvalues --    1.00077   1.00078   1.01008   1.01211   1.01328
 Alpha virt. eigenvalues --    1.01329   1.01584   1.01860   1.01939   1.01940
 Alpha virt. eigenvalues --    1.02681   1.02682   1.02827   1.02828   1.02929
 Alpha virt. eigenvalues --    1.03131   1.03132   1.03602   1.03723   1.03723
 Alpha virt. eigenvalues --    1.04205   1.04208   1.04405   1.04406   1.04610
 Alpha virt. eigenvalues --    1.05358   1.05561   1.05562   1.05965   1.05965
 Alpha virt. eigenvalues --    1.06606   1.07089   1.07089   1.07160   1.07161
 Alpha virt. eigenvalues --    1.08096   1.08096   1.08306   1.08307   1.08719
 Alpha virt. eigenvalues --    1.08719   1.09069   1.10529   1.10531   1.10786
 Alpha virt. eigenvalues --    1.10852   1.10853   1.11044   1.11097   1.11168
 Alpha virt. eigenvalues --    1.11774   1.12560   1.12774   1.12938   1.12939
 Alpha virt. eigenvalues --    1.13373   1.13375   1.13375   1.13923   1.14649
 Alpha virt. eigenvalues --    1.14705   1.14706   1.15853   1.15853   1.15870
 Alpha virt. eigenvalues --    1.15872   1.16078   1.16585   1.16589   1.17401
 Alpha virt. eigenvalues --    1.17402   1.18461   1.18462   1.18750   1.18750
 Alpha virt. eigenvalues --    1.20868   1.20977   1.21803   1.22401   1.23947
 Alpha virt. eigenvalues --    1.23974   1.24275   1.24276   1.24378   1.24413
 Alpha virt. eigenvalues --    1.24416   1.24649   1.24654   1.25180   1.25181
 Alpha virt. eigenvalues --    1.25409   1.25409   1.26456   1.27362   1.27525
 Alpha virt. eigenvalues --    1.27526   1.28158   1.29095   1.29096   1.30676
 Alpha virt. eigenvalues --    1.30678   1.32144   1.32147   1.34617   1.38159
 Alpha virt. eigenvalues --    1.38161   1.38429   1.40077   1.40083   1.40265
 Alpha virt. eigenvalues --    1.40268   1.42113   1.43310   1.46820   1.46820
 Alpha virt. eigenvalues --    1.50271   1.50321   1.50518   1.51259   1.51587
 Alpha virt. eigenvalues --    1.51588   1.52162   1.52168   1.52903   1.53285
 Alpha virt. eigenvalues --    1.53290   1.53675   1.53677   1.53685   1.53686
 Alpha virt. eigenvalues --    1.53722   1.53957   1.54305   1.55354   1.55475
 Alpha virt. eigenvalues --    1.55475   1.55691   1.55692   1.55777   1.55778
 Alpha virt. eigenvalues --    1.55996   1.55997   1.57019   1.57528   1.57529
 Alpha virt. eigenvalues --    1.58069   1.58703   1.58704   1.59174   1.60154
 Alpha virt. eigenvalues --    1.60558   1.60568   1.60568   1.61793   1.61794
 Alpha virt. eigenvalues --    1.62533   1.62833   1.62833   1.63001   1.63002
 Alpha virt. eigenvalues --    1.63337   1.63341   1.63508   1.63799   1.63799
 Alpha virt. eigenvalues --    1.65063   1.66505   1.67138   1.67209   1.67213
 Alpha virt. eigenvalues --    1.68126   1.68127   1.68342   1.68343   1.69235
 Alpha virt. eigenvalues --    1.69237   1.69441   1.69467   1.69468   1.70577
 Alpha virt. eigenvalues --    1.70578   1.71183   1.71184   1.72231   1.72860
 Alpha virt. eigenvalues --    1.72860   1.73621   1.74302   1.77188   1.78309
 Alpha virt. eigenvalues --    1.78309   1.78726   1.78727   1.79277   1.79815
 Alpha virt. eigenvalues --    1.80059   1.80524   1.80526   1.80831   1.81573
 Alpha virt. eigenvalues --    1.81576   1.83181   1.83186   1.84463   1.84768
 Alpha virt. eigenvalues --    1.84785   1.84900   1.84902   1.84913   1.84914
 Alpha virt. eigenvalues --    1.85672   1.87413   1.87420   1.89103   1.89103
 Alpha virt. eigenvalues --    1.90667   1.90670   1.91261   1.91265   1.91989
 Alpha virt. eigenvalues --    1.91995   1.92331   1.92350   1.92350   1.93204
 Alpha virt. eigenvalues --    1.93207   1.94309   1.94310   1.94389   1.95215
 Alpha virt. eigenvalues --    1.95311   1.95893   1.96412   1.96942   1.96943
 Alpha virt. eigenvalues --    1.98386   1.99622   1.99639   2.00276   2.00398
 Alpha virt. eigenvalues --    2.00705   2.01095   2.01769   2.01772   2.01965
 Alpha virt. eigenvalues --    2.01966   2.02517   2.03334   2.03335   2.03343
 Alpha virt. eigenvalues --    2.03345   2.04744   2.04816   2.04936   2.04937
 Alpha virt. eigenvalues --    2.05955   2.05957   2.07585   2.07589   2.08240
 Alpha virt. eigenvalues --    2.08702   2.08704   2.09294   2.09398   2.09398
 Alpha virt. eigenvalues --    2.09703   2.09706   2.10407   2.10415   2.12262
 Alpha virt. eigenvalues --    2.12263   2.13085   2.13085   2.13987   2.15094
 Alpha virt. eigenvalues --    2.15315   2.16369   2.16369   2.16504   2.16506
 Alpha virt. eigenvalues --    2.16545   2.16545   2.17698   2.17702   2.17839
 Alpha virt. eigenvalues --    2.18565   2.18566   2.19177   2.19177   2.21948
 Alpha virt. eigenvalues --    2.22752   2.22755   2.23019   2.23253   2.23382
 Alpha virt. eigenvalues --    2.23388   2.23863   2.23882   2.24340   2.25403
 Alpha virt. eigenvalues --    2.26778   2.26778   2.29298   2.29306   2.30450
 Alpha virt. eigenvalues --    2.31168   2.31379   2.31392   2.32729   2.34387
 Alpha virt. eigenvalues --    2.34491   2.34492   2.34830   2.35227   2.35403
 Alpha virt. eigenvalues --    2.35509   2.35510   2.38731   2.38811   2.38811
 Alpha virt. eigenvalues --    2.40162   2.40162   2.40400   2.40780   2.42274
 Alpha virt. eigenvalues --    2.42275   2.44510   2.44512   2.45485   2.45487
 Alpha virt. eigenvalues --    2.45924   2.47129   2.47137   2.50225   2.50228
 Alpha virt. eigenvalues --    2.52185   2.52851   2.52979   2.52979   2.53142
 Alpha virt. eigenvalues --    2.53143   2.55660   2.55661   2.55748   2.57584
 Alpha virt. eigenvalues --    2.57586   2.57616   2.57756   2.57763   2.57800
 Alpha virt. eigenvalues --    2.60274   2.66139   2.66141   2.66970   2.66972
 Alpha virt. eigenvalues --    2.67715   2.68562   2.68843   2.70568   2.71740
 Alpha virt. eigenvalues --    2.71741   2.71936   2.72155   2.73047   2.73057
 Alpha virt. eigenvalues --    2.73147   2.73558   2.73558   2.74135   2.74157
 Alpha virt. eigenvalues --    2.75042   2.75042   2.75463   2.75480   2.77135
 Alpha virt. eigenvalues --    2.79768   2.81059   2.81060   2.81325   2.82130
 Alpha virt. eigenvalues --    2.82130   2.82507   2.82508   2.83228   2.83601
 Alpha virt. eigenvalues --    2.84341   2.84475   2.84475   2.84717   2.84798
 Alpha virt. eigenvalues --    2.84798   2.85168   2.85169   2.86787   2.87012
 Alpha virt. eigenvalues --    2.87882   2.87885   2.88683   2.88684   2.88748
 Alpha virt. eigenvalues --    2.88751   2.88995   2.89423   2.89424   2.90149
 Alpha virt. eigenvalues --    2.90149   2.90432   2.90487   2.90489   2.90900
 Alpha virt. eigenvalues --    2.90907   2.90973   2.92128   2.92200   2.92201
 Alpha virt. eigenvalues --    2.93004   2.95367   2.95507   2.95710   2.95714
 Alpha virt. eigenvalues --    2.95812   2.95813   2.96211   2.96852   2.97115
 Alpha virt. eigenvalues --    2.98224   2.98364   2.98364   2.98632   2.99807
 Alpha virt. eigenvalues --    2.99810   3.00600   3.00600   3.02047   3.02048
 Alpha virt. eigenvalues --    3.02196   3.02197   3.03448   3.08609   3.08612
 Alpha virt. eigenvalues --    3.09244   3.09245   3.09590   3.09592   3.12633
 Alpha virt. eigenvalues --    3.12938   3.13908   3.15636   3.15636   3.16246
 Alpha virt. eigenvalues --    3.16663   3.16669   3.18300   3.18703   3.18703
 Alpha virt. eigenvalues --    3.18865   3.18881   3.20525   3.21800   3.22726
 Alpha virt. eigenvalues --    3.22728   3.23278   3.23279   3.23717   3.27335
 Alpha virt. eigenvalues --    3.28253   3.29732   3.30073   3.31201   3.31202
 Alpha virt. eigenvalues --    3.32147   3.32147   3.34904   3.35141   3.35141
 Alpha virt. eigenvalues --    3.36919   3.37439   3.37447   3.38542   3.38544
 Alpha virt. eigenvalues --    3.39413   3.39414   3.40258   3.44574   3.47077
 Alpha virt. eigenvalues --    3.47079   3.49319   3.49320   3.50375   3.50431
 Alpha virt. eigenvalues --    3.52204   3.52206   3.52649   3.52650   3.55865
 Alpha virt. eigenvalues --    3.55868   3.55936   3.55941   3.56930   3.57839
 Alpha virt. eigenvalues --    3.60214   3.60216   3.61197   3.61263   3.62814
 Alpha virt. eigenvalues --    3.64411   3.64412   3.65177   3.65179   3.67077
 Alpha virt. eigenvalues --    3.67079   3.67301   3.69638   3.72446   3.75750
 Alpha virt. eigenvalues --    3.75761   3.75764   3.76333   3.76335   3.76936
 Alpha virt. eigenvalues --    3.79001   3.79002   3.82855   3.82855   3.84419
 Alpha virt. eigenvalues --    3.85719   3.85719   3.86109   3.86110   3.89392
 Alpha virt. eigenvalues --    3.91347   3.93587   3.95270   3.99216   3.99223
 Alpha virt. eigenvalues --    3.99954   3.99957   4.18088   4.18090   4.18252
 Alpha virt. eigenvalues --    4.19295   4.19296   4.22033   4.27190   4.31714
 Alpha virt. eigenvalues --    4.31715   4.32760   4.34933   4.34935   4.38335
 Alpha virt. eigenvalues --    4.38341   4.39325   4.40839   4.43476   4.43486
 Alpha virt. eigenvalues --    4.55916   4.55918   4.58304   4.78591   4.78592
 Alpha virt. eigenvalues --    4.88732   4.91278   4.91279   4.93234   4.93234
 Alpha virt. eigenvalues --    4.94157   4.95485   4.98941   4.98941   5.01393
 Alpha virt. eigenvalues --    5.01679   5.01680   5.11240  23.53594  23.69055
 Alpha virt. eigenvalues --   23.69059  23.84617  23.84618  23.92607  23.95848
 Alpha virt. eigenvalues --   23.98087  23.98089  23.99278  23.99481  23.99482
 Alpha virt. eigenvalues --   24.05617  24.07173  24.07177  24.09246  24.09246
 Alpha virt. eigenvalues --   24.09596  24.10541  24.11199  24.11201  24.11987
 Alpha virt. eigenvalues --   24.11987  24.12915  24.16025  24.16596  24.16598
 Alpha virt. eigenvalues --   24.17195  24.17197  24.18103  24.23147  24.23396
 Alpha virt. eigenvalues --   24.23401  24.24504  24.24508  24.26375  24.30504
 Alpha virt. eigenvalues --   24.31093  24.31096  24.31174  24.31176  24.32909
 Alpha virt. eigenvalues --   24.35738  24.35743  24.35807  24.35813  24.36169
 Alpha virt. eigenvalues --   24.36415
          Condensed to atoms (all electrons):
 Mulliken charges:
               1
     1  C    0.483659
     2  C   -0.093092
     3  C   -0.093349
     4  C    0.483971
     5  C   -0.438614
     6  C   -0.438646
     7  C   -0.025816
     8  C    0.483659
     9  C   -0.093092
    10  C   -0.203043
    11  C   -0.438646
    12  C   -0.438614
    13  C    0.483971
    14  C   -0.093349
    15  C   -0.025765
    16  C    0.484042
    17  C   -0.093435
    18  C   -0.202792
    19  C   -0.438951
    20  C   -0.438951
    21  C    0.484042
    22  C   -0.093435
    23  C   -0.025765
    24  C    0.483971
    25  C   -0.093349
    26  C   -0.202792
    27  C   -0.438614
    28  C   -0.438646
    29  C    0.483659
    30  C   -0.093092
    31  C   -0.025816
    32  C    0.483659
    33  C   -0.093092
    34  C   -0.203043
    35  C   -0.438646
    36  C   -0.438614
    37  C    0.483971
    38  C   -0.093349
    39  C   -0.025765
    40  C    0.484042
    41  C   -0.093435
    42  C   -0.202792
    43  C   -0.438951
    44  C   -0.438951
    45  C    0.484042
    46  C   -0.093435
    47  C   -0.025765
    48  C   -0.202792
    49  H    0.182609
    50  H    0.182622
    51  H    0.144861
    52  H    0.182622
    53  H    0.182609
    54  H    0.144919
    55  H    0.182606
    56  H    0.182606
    57  H    0.144919
    58  H    0.182609
    59  H    0.182622
    60  H    0.144861
    61  H    0.182622
    62  H    0.182609
    63  H    0.144919
    64  H    0.182606
    65  H    0.182606
    66  H    0.144919
    67  H   -0.185296
    68  H   -0.184974
    69  H   -0.185296
    70  H   -0.185296
    71  H   -0.184974
    72  H   -0.185296
 Sum of Mulliken charges =  -0.00000
 Mulliken charges with hydrogens summed into heavy atoms:
               1
     1  C    0.483659
     2  C   -0.093092
     3  C   -0.093349
     4  C    0.483971
     5  C   -0.256006
     6  C   -0.256025
     7  C    0.119046
     8  C    0.483659
     9  C   -0.093092
    10  C   -0.388017
    11  C   -0.256025
    12  C   -0.256006
    13  C    0.483971
    14  C   -0.093349
    15  C    0.119154
    16  C    0.484042
    17  C   -0.093435
    18  C   -0.388088
    19  C   -0.256345
    20  C   -0.256345
    21  C    0.484042
    22  C   -0.093435
    23  C    0.119154
    24  C    0.483971
    25  C   -0.093349
    26  C   -0.388088
    27  C   -0.256006
    28  C   -0.256025
    29  C    0.483659
    30  C   -0.093092
    31  C    0.119046
    32  C    0.483659
    33  C   -0.093092
    34  C   -0.388017
    35  C   -0.256025
    36  C   -0.256006
    37  C    0.483971
    38  C   -0.093349
    39  C    0.119154
    40  C    0.484042
    41  C   -0.093435
    42  C   -0.388088
    43  C   -0.256345
    44  C   -0.256345
    45  C    0.484042
    46  C   -0.093435
    47  C    0.119154
    48  C   -0.388088
 Electronic spatial extent (au):  <R**2>=          29386.5409
 Charge=              0.0000 electrons
 Dipole moment (field-independent basis, Debye):
    X=             -0.0000    Y=              0.0000    Z=              0.0000  Tot=              0.0000
 Quadrupole moment (field-independent basis, Debye-Ang):
   XX=           -290.9583   YY=           -231.9919   ZZ=           -231.9965
   XY=              0.0000   XZ=             -0.0000   YZ=              0.0000
 Traceless Quadrupole moment (field-independent basis, Debye-Ang):
   XX=            -39.3094   YY=             19.6570   ZZ=             19.6524
   XY=              0.0000   XZ=             -0.0000   YZ=              0.0000
 Octapole moment (field-independent basis, Debye-Ang**2):
  XXX=             -0.0000  YYY=             -0.0000  ZZZ=              0.0000  XYY=             -0.0000
  XXY=             -0.0000  XXZ=             -0.0000  XZZ=              0.0000  YZZ=              0.0000
  YYZ=             -0.0000  XYZ=              0.0000
 Hexadecapole moment (field-independent basis, Debye-Ang**3):
 XXXX=           -335.1887 YYYY=         -18298.5435 ZZZZ=         -18297.1142 XXXY=             -0.0000
 XXXZ=              0.0000 YYYX=             -0.0000 YYYZ=             -0.0000 ZZZX=              0.0000
 ZZZY=             -0.0000 XXYY=          -3888.0716 XXZZ=          -3887.7564 YYZZ=          -6099.1303
 XXYZ=              0.0000 YYXZ=              0.0000 ZZXY=             -0.0000
 N-N= 5.203428724766D+03 E-N=-1.468375117379D+04  KE= 1.835786470151D+03
 Symmetry AG   KE= 4.824894685249D+02
 Symmetry B1G  KE= 1.277498041128D+01
 Symmetry B2G  KE= 1.290206098097D+01
 Symmetry B3G  KE= 4.096938462983D+02
 Symmetry AU   KE= 1.097292131137D+01
 Symmetry B1U  KE= 4.778745048336D+02
 Symmetry B2U  KE= 4.143686006253D+02
 Symmetry B3U  KE= 1.471008716508D+01
 1\1\GINC-BC12044\FOpt\RwB97XD\6-311++G(d,p)\C48H24\HPHAM196\03-Sep-202
 2\0\\# opt wb97xd/6-311++g(d,p) geom=connectivity\\Sixmember-3.cdx\\0,
 1\C,0.,1.2228818358,4.9895811467\C,0.,1.2198045138,3.5728285541\C,0.,2
 .4844426983,2.8427067371\C,0.,3.7098254012,3.553819085\C,0.,3.66613759
 45,4.9987546056\C,0.,2.4960550379,5.6743037065\C,0.,0.,5.6672108161\C,
 0.,-1.2228818358,4.9895811467\C,0.,-1.2198045138,3.5728285541\C,0.,0.,
 2.9120065037\C,0.,-2.4960550379,5.6743037065\C,0.,-3.6661375945,4.9987
 546056\C,0.,-3.7098254012,3.553819085\C,0.,-2.4844426983,2.8427067371\
 C,0.,-4.9082355382,2.833729552\C,0.,-4.9327975643,1.435865036\C,0.,-3.
 7043114119,0.7301212053\C,0.,-2.5220217772,1.4559215307\C,0.,-6.162306
 4397,0.6755625804\C,0.,-6.1623064397,-0.6755625804\C,0.,-4.9327975643,
 -1.435865036\C,0.,-3.7043114119,-0.7301212053\C,0.,-4.9082355382,-2.83
 3729552\C,0.,-3.7098254012,-3.553819085\C,0.,-2.4844426983,-2.84270673
 71\C,0.,-2.5220217772,-1.4559215307\C,0.,-3.6661375945,-4.9987546056\C
 ,0.,-2.4960550379,-5.6743037065\C,0.,-1.2228818358,-4.9895811467\C,0.,
 -1.2198045138,-3.5728285541\C,0.,0.,-5.6672108161\C,0.,1.2228818358,-4
 .9895811467\C,0.,1.2198045138,-3.5728285541\C,0.,0.,-2.9120065037\C,0.
 ,2.4960550379,-5.6743037065\C,0.,3.6661375945,-4.9987546056\C,0.,3.709
 8254012,-3.553819085\C,0.,2.4844426983,-2.8427067371\C,0.,4.9082355382
 ,-2.833729552\C,0.,4.9327975643,-1.435865036\C,0.,3.7043114119,-0.7301
 212053\C,0.,2.5220217772,-1.4559215307\C,0.,6.1623064397,-0.6755625804
 \C,0.,6.1623064397,0.6755625804\C,0.,4.9327975643,1.435865036\C,0.,3.7
 043114119,0.7301212053\C,0.,4.9082355382,2.833729552\C,0.,2.5220217772
 ,1.4559215307\H,0.,-4.6065549976,5.540366733\H,0.,-2.4948389006,6.7595
 278008\H,0.,0.,6.7535658823\H,0.,2.4948389006,6.7595278008\H,0.,4.6065
 549976,5.540366733\H,0.,5.848994526,3.3769972304\H,0.,7.1015421676,1.2
 192215911\H,0.,7.1015421676,-1.2192215911\H,0.,5.848994526,-3.37699723
 04\H,0.,4.6065549976,-5.540366733\H,0.,2.4948389006,-6.7595278008\H,0.
 ,0.,-6.7535658823\H,0.,-2.4948389006,-6.7595278008\H,0.,-4.6065549976,
 -5.540366733\H,0.,-5.848994526,-3.3769972304\H,0.,-7.1015421676,-1.219
 2215911\H,0.,-7.1015421676,1.2192215911\H,0.,-5.848994526,3.3769972304
 \H,0.,-1.589223632,0.9170224436\H,0.,0.,1.8347632254\H,0.,1.589223632,
 0.9170224436\H,0.,1.589223632,-0.9170224436\H,0.,0.,-1.8347632254\H,0.
 ,-1.589223632,-0.9170224436\\Version=ES64L-G16RevA.03\State=1-AG\HF=-1
 843.4719058\RMSD=3.692e-09\RMSF=3.276e-05\Dipole=0.,0.,0.\Quadrupole=-
 29.2255758,14.6144868,14.611089,0.,0.,0.\PG=D02H [C2"(H1C1C1H1.H1C1C1H
 1),SG(C44H20)]\\@


 SCIENCE IS LONG AND LIFE IS SHORT.

                     DON MOSER IN THE FEBRUARY 1979 SMITHSONIAN
 Job cpu time:       0 days  8 hours 11 minutes 53.0 seconds.
 Elapsed time:       0 days  0 hours 14 minutes 22.1 seconds.
 File lengths (MBytes):  RWF=    891 Int=      0 D2E=      0 Chk=    107 Scr=      1
 Normal termination of Gaussian 16 at Sat Sep  3 10:03:24 2022.
