 Entering Gaussian System, Link 0=g16
 Initial command:
 /project/6004141/group/g16/g16/l1.exe "/scratch/hpham196/GaussianScratch/Gau-261764.inp" -scrdir="/scratch/hpham196/GaussianScratch/"
 Entering Link 1 = /project/6004141/group/g16/g16/l1.exe PID=    261765.
  
 Copyright (c) 1988,1990,1992,1993,1995,1998,2003,2009,2016,
            Gaussian, Inc.  All Rights Reserved.
  
 This is part of the Gaussian(R) 16 program.  It is based on
 the Gaussian(R) 09 system (copyright 2009, Gaussian, Inc.),
 the Gaussian(R) 03 system (copyright 2003, Gaussian, Inc.),
 the Gaussian(R) 98 system (copyright 1998, Gaussian, Inc.),
 the Gaussian(R) 94 system (copyright 1995, Gaussian, Inc.),
 the Gaussian 92(TM) system (copyright 1992, Gaussian, Inc.),
 the Gaussian 90(TM) system (copyright 1990, Gaussian, Inc.),
 the Gaussian 88(TM) system (copyright 1988, Gaussian, Inc.),
 the Gaussian 86(TM) system (copyright 1986, Carnegie Mellon
 University), and the Gaussian 82(TM) system (copyright 1983,
 Carnegie Mellon University). Gaussian is a federally registered
 trademark of Gaussian, Inc.
  
 This software contains proprietary and confidential information,
 including trade secrets, belonging to Gaussian, Inc.
  
 This software is provided under written license and may be
 used, copied, transmitted, or stored only in accord with that
 written license.
  
 The following legend is applicable only to US Government
 contracts under FAR:
  
                    RESTRICTED RIGHTS LEGEND
  
 Use, reproduction and disclosure by the US Government is
 subject to restrictions as set forth in subparagraphs (a)
 and (c) of the Commercial Computer Software - Restricted
 Rights clause in FAR 52.227-19.
  
 Gaussian, Inc.
 340 Quinnipiac St., Bldg. 40, Wallingford CT 06492
  
  
 ---------------------------------------------------------------
 Warning -- This program may not be used in any manner that
 competes with the business of Gaussian, Inc. or will provide
 assistance to any competitor of Gaussian, Inc.  The licensee
 of this program is prohibited from giving any competitor of
 Gaussian, Inc. access to this program.  By using this program,
 the user acknowledges that Gaussian, Inc. is engaged in the
 business of creating and licensing software in the field of
 computational chemistry and represents and warrants to the
 licensee that it is not a competitor of Gaussian, Inc. and that
 it will not use this program in any manner prohibited above.
 ---------------------------------------------------------------
  

 Cite this work as:
 Gaussian 16, Revision A.03,
 M. J. Frisch, G. W. Trucks, H. B. Schlegel, G. E. Scuseria, 
 M. A. Robb, J. R. Cheeseman, G. Scalmani, V. Barone, 
 G. A. Petersson, H. Nakatsuji, X. Li, M. Caricato, A. V. Marenich, 
 J. Bloino, B. G. Janesko, R. Gomperts, B. Mennucci, H. P. Hratchian, 
 J. V. Ortiz, A. F. Izmaylov, J. L. Sonnenberg, D. Williams-Young, 
 F. Ding, F. Lipparini, F. Egidi, J. Goings, B. Peng, A. Petrone, 
 T. Henderson, D. Ranasinghe, V. G. Zakrzewski, J. Gao, N. Rega, 
 G. Zheng, W. Liang, M. Hada, M. Ehara, K. Toyota, R. Fukuda, 
 J. Hasegawa, M. Ishida, T. Nakajima, Y. Honda, O. Kitao, H. Nakai, 
 T. Vreven, K. Throssell, J. A. Montgomery, Jr., J. E. Peralta, 
 F. Ogliaro, M. J. Bearpark, J. J. Heyd, E. N. Brothers, K. N. Kudin, 
 V. N. Staroverov, T. A. Keith, R. Kobayashi, J. Normand, 
 K. Raghavachari, A. P. Rendell, J. C. Burant, S. S. Iyengar, 
 J. Tomasi, M. Cossi, J. M. Millam, M. Klene, C. Adamo, R. Cammi, 
 J. W. Ochterski, R. L. Martin, K. Morokuma, O. Farkas, 
 J. B. Foresman, and D. J. Fox, Gaussian, Inc., Wallingford CT, 2016.
 
 ******************************************
 Gaussian 16:  ES64L-G16RevA.03 25-Dec-2016
                 5-Sep-2022 
 ******************************************
 %NProcShared=40
 Will use up to   40 processors via shared memory.
 %chk=Graphene-4.chk
 --------------------------------------------
 # opt wb97xd/6-311++g(d,p) geom=connectivity
 --------------------------------------------
 1/18=20,19=15,26=3,38=1,57=2/1,3;
 2/9=110,12=2,17=6,18=5,40=1/2;
 3/5=4,6=6,7=1111,11=2,25=1,30=1,71=1,74=-58/1,2,3;
 4//1;
 5/5=2,38=5/2;
 6/7=2,8=2,9=2,10=2,28=1/1;
 7//1,2,3,16;
 1/18=20,19=15,26=3/3(2);
 2/9=110/2;
 99//99;
 2/9=110/2;
 3/5=4,6=6,7=1111,11=2,25=1,30=1,71=1,74=-58/1,2,3;
 4/5=5,16=3,69=1/1;
 5/5=2,38=5/2;
 7//1,2,3,16;
 1/18=20,19=15,26=3/3(-5);
 2/9=110/2;
 6/7=2,8=2,9=2,10=2,19=2,28=1/1;
 99/9=1/99;
 ---------------
 sixmember-4.cdx
 ---------------
 Symbolic Z-matrix:
 Charge =  0 Multiplicity = 1
 C                    -7.40859   2.83132   0. 
 C                    -7.39939   1.44534   0. 
 C                    -6.15048   0.73567   0. 
 C                    -4.98245   1.46459   0. 
 C                    -4.97596   2.87296   0. 
 C                    -6.20991   3.58536   0. 
 C                    -3.75958   3.58285   0. 
 C                    -3.71245   4.95886   0. 
 C                    -4.95145   5.68558   0. 
 C                    -6.15634   5.0005    0. 
 C                    -2.4382    5.6945    0. 
 C                    -2.44805   7.13089   0. 
 C                    -3.73157   7.81255   0. 
 C                    -4.9       7.13796   0. 
 C                    -1.22301   5.04724   0. 
 C                     0.        5.74563   0. 
 C                     0.        7.17048   0. 
 C                    -1.2523    7.8317    0. 
 C                     1.22301   5.04724   0. 
 C                     2.4382    5.6945    0. 
 C                     2.44805   7.13089   0. 
 C                     1.2523    7.8317    0. 
 C                    -8.63145   0.6746    0. 
 C                    -8.63145  -0.6746    0. 
 C                    -7.39939  -1.44534   0. 
 C                    -6.15048  -0.73567   0. 
 C                    -7.40859  -2.83132   0. 
 C                    -6.20991  -3.58536   0. 
 C                    -4.97596  -2.87296   0. 
 C                    -4.98245  -1.46459   0. 
 C                    -6.15634  -5.0005    0. 
 C                    -4.95145  -5.68558   0. 
 C                    -3.71245  -4.95886   0. 
 C                    -3.75958  -3.58285   0. 
 C                    -4.9      -7.13796   0. 
 C                    -3.73157  -7.81255   0. 
 C                    -2.44805  -7.13089   0. 
 C                    -2.4382   -5.6945    0. 
 C                    -1.2523   -7.8317    0. 
 C                     0.       -7.17048   0. 
 C                     0.       -5.74563   0. 
 C                    -1.22301  -5.04724   0. 
 C                     1.2523   -7.8317    0. 
 C                     2.44805  -7.13089   0. 
 C                     2.4382   -5.6945    0. 
 C                     1.22301  -5.04724   0. 
 C                     3.73157  -7.81255   0. 
 C                     4.9      -7.13796   0. 
 C                     4.95145  -5.68558   0. 
 C                     3.71245  -4.95886   0. 
 C                     6.15634  -5.0005    0. 
 C                     6.20991  -3.58536   0. 
 C                     4.97596  -2.87296   0. 
 C                     3.75958  -3.58285   0. 
 C                     7.40859  -2.83132   0. 
 C                     7.39939  -1.44534   0. 
 C                     6.15048  -0.73567   0. 
 C                     4.98245  -1.46459   0. 
 C                     8.63145  -0.6746    0. 
 C                     8.63145   0.6746    0. 
 C                     7.39939   1.44534   0. 
 C                     6.15048   0.73567   0. 
 C                     7.40859   2.83132   0. 
 C                     6.20991   3.58536   0. 
 C                     4.97596   2.87296   0. 
 C                     4.98245   1.46459   0. 
 C                     6.15634   5.0005    0. 
 C                     4.95145   5.68558   0. 
 C                     3.71245   4.95886   0. 
 C                     3.75958   3.58285   0. 
 C                     4.9       7.13796   0. 
 C                     3.73157   7.81255   0. 
 H                    -5.84275   7.67978   0. 
 H                    -3.72938   8.8999    0. 
 H                    -1.2742    8.91996   0. 
 H                     1.2742    8.91996   0. 
 H                     3.72938   8.8999    0. 
 H                     5.84275   7.67978   0. 
 H                     7.0878    5.56367   0. 
 H                     8.36206   3.35639   0. 
 H                     9.57201   1.22021   0. 
 H                     9.57201  -1.22021   0. 
 H                     8.36205  -3.35639   0. 
 H                     7.0878   -5.56367   0. 
 H                     5.84275  -7.67978   0. 
 H                     3.72938  -8.8999    0. 
 H                     1.2742   -8.91996   0. 
 H                    -1.2742   -8.91996   0. 
 H                    -3.72938  -8.8999    0. 
 H                    -5.84275  -7.67978   0. 
 H                    -7.0878   -5.56367   0. 
 H                    -8.36206  -3.35639   0. 
 H                    -9.57201  -1.22021   0. 
 H                    -9.57201   1.22021   0. 
 H                    -8.36205   3.35639   0. 
 H                    -7.0878    5.56367   0. 
 H                    -2.84831   2.99407   0. 
 H                    -1.16912   3.96362   0. 
 H                     1.16912   3.96362   0. 
 H                     2.84831   2.99407   0. 
 H                     4.01684   0.96994   0. 
 H                     4.01684  -0.96994   0. 
 H                     2.84831  -2.99407   0. 
 H                     1.16912  -3.96362   0. 
 H                    -1.16912  -3.96362   0. 
 H                    -2.84831  -2.99407   0. 
 H                    -4.01684  -0.96994   0. 
 H                    -4.01684   0.96994   0. 
 

 GradGradGradGradGradGradGradGradGradGradGradGradGradGradGradGradGradGrad
 Berny optimization.
 Initialization pass.
                           ----------------------------
                           !    Initial Parameters    !
                           ! (Angstroms and Degrees)  !
 --------------------------                            --------------------------
 ! Name  Definition              Value          Derivative Info.                !
 --------------------------------------------------------------------------------
 ! R1    R(1,2)                  1.386          estimate D2E/DX2                !
 ! R2    R(1,6)                  1.4161         estimate D2E/DX2                !
 ! R3    R(1,95)                 1.0885         estimate D2E/DX2                !
 ! R4    R(2,3)                  1.4365         estimate D2E/DX2                !
 ! R5    R(2,23)                 1.4533         estimate D2E/DX2                !
 ! R6    R(3,4)                  1.3768         estimate D2E/DX2                !
 ! R7    R(3,26)                 1.4713         estimate D2E/DX2                !
 ! R8    R(4,5)                  1.4084         estimate D2E/DX2                !
 ! R9    R(4,108)                1.0849         estimate D2E/DX2                !
 ! R10   R(5,6)                  1.4248         estimate D2E/DX2                !
 ! R11   R(5,7)                  1.4084         estimate D2E/DX2                !
 ! R12   R(6,10)                 1.4161         estimate D2E/DX2                !
 ! R13   R(7,8)                  1.3768         estimate D2E/DX2                !
 ! R14   R(7,97)                 1.0849         estimate D2E/DX2                !
 ! R15   R(8,9)                  1.4364         estimate D2E/DX2                !
 ! R16   R(8,11)                 1.4713         estimate D2E/DX2                !
 ! R17   R(9,10)                 1.386          estimate D2E/DX2                !
 ! R18   R(9,14)                 1.4533         estimate D2E/DX2                !
 ! R19   R(10,96)                1.0885         estimate D2E/DX2                !
 ! R20   R(11,12)                1.4364         estimate D2E/DX2                !
 ! R21   R(11,15)                1.3768         estimate D2E/DX2                !
 ! R22   R(12,13)                1.4533         estimate D2E/DX2                !
 ! R23   R(12,18)                1.386          estimate D2E/DX2                !
 ! R24   R(13,14)                1.3492         estimate D2E/DX2                !
 ! R25   R(13,74)                1.0874         estimate D2E/DX2                !
 ! R26   R(14,73)                1.0874         estimate D2E/DX2                !
 ! R27   R(15,16)                1.4084         estimate D2E/DX2                !
 ! R28   R(15,98)                1.085          estimate D2E/DX2                !
 ! R29   R(16,17)                1.4248         estimate D2E/DX2                !
 ! R30   R(16,19)                1.4084         estimate D2E/DX2                !
 ! R31   R(17,18)                1.4161         estimate D2E/DX2                !
 ! R32   R(17,22)                1.4161         estimate D2E/DX2                !
 ! R33   R(18,75)                1.0885         estimate D2E/DX2                !
 ! R34   R(19,20)                1.3768         estimate D2E/DX2                !
 ! R35   R(19,99)                1.085          estimate D2E/DX2                !
 ! R36   R(20,21)                1.4364         estimate D2E/DX2                !
 ! R37   R(20,69)                1.4713         estimate D2E/DX2                !
 ! R38   R(21,22)                1.386          estimate D2E/DX2                !
 ! R39   R(21,72)                1.4533         estimate D2E/DX2                !
 ! R40   R(22,76)                1.0885         estimate D2E/DX2                !
 ! R41   R(23,24)                1.3492         estimate D2E/DX2                !
 ! R42   R(23,94)                1.0874         estimate D2E/DX2                !
 ! R43   R(24,25)                1.4533         estimate D2E/DX2                !
 ! R44   R(24,93)                1.0874         estimate D2E/DX2                !
 ! R45   R(25,26)                1.4365         estimate D2E/DX2                !
 ! R46   R(25,27)                1.386          estimate D2E/DX2                !
 ! R47   R(26,30)                1.3768         estimate D2E/DX2                !
 ! R48   R(27,28)                1.4161         estimate D2E/DX2                !
 ! R49   R(27,92)                1.0885         estimate D2E/DX2                !
 ! R50   R(28,29)                1.4248         estimate D2E/DX2                !
 ! R51   R(28,31)                1.4161         estimate D2E/DX2                !
 ! R52   R(29,30)                1.4084         estimate D2E/DX2                !
 ! R53   R(29,34)                1.4084         estimate D2E/DX2                !
 ! R54   R(30,107)               1.0849         estimate D2E/DX2                !
 ! R55   R(31,32)                1.386          estimate D2E/DX2                !
 ! R56   R(31,91)                1.0885         estimate D2E/DX2                !
 ! R57   R(32,33)                1.4364         estimate D2E/DX2                !
 ! R58   R(32,35)                1.4533         estimate D2E/DX2                !
 ! R59   R(33,34)                1.3768         estimate D2E/DX2                !
 ! R60   R(33,38)                1.4713         estimate D2E/DX2                !
 ! R61   R(34,106)               1.0849         estimate D2E/DX2                !
 ! R62   R(35,36)                1.3492         estimate D2E/DX2                !
 ! R63   R(35,90)                1.0874         estimate D2E/DX2                !
 ! R64   R(36,37)                1.4533         estimate D2E/DX2                !
 ! R65   R(36,89)                1.0874         estimate D2E/DX2                !
 ! R66   R(37,38)                1.4364         estimate D2E/DX2                !
 ! R67   R(37,39)                1.386          estimate D2E/DX2                !
 ! R68   R(38,42)                1.3768         estimate D2E/DX2                !
 ! R69   R(39,40)                1.4161         estimate D2E/DX2                !
 ! R70   R(39,88)                1.0885         estimate D2E/DX2                !
 ! R71   R(40,41)                1.4248         estimate D2E/DX2                !
 ! R72   R(40,43)                1.4161         estimate D2E/DX2                !
 ! R73   R(41,42)                1.4084         estimate D2E/DX2                !
 ! R74   R(41,46)                1.4084         estimate D2E/DX2                !
 ! R75   R(42,105)               1.085          estimate D2E/DX2                !
 ! R76   R(43,44)                1.386          estimate D2E/DX2                !
 ! R77   R(43,87)                1.0885         estimate D2E/DX2                !
 ! R78   R(44,45)                1.4364         estimate D2E/DX2                !
 ! R79   R(44,47)                1.4533         estimate D2E/DX2                !
 ! R80   R(45,46)                1.3768         estimate D2E/DX2                !
 ! R81   R(45,50)                1.4713         estimate D2E/DX2                !
 ! R82   R(46,104)               1.085          estimate D2E/DX2                !
 ! R83   R(47,48)                1.3492         estimate D2E/DX2                !
 ! R84   R(47,86)                1.0874         estimate D2E/DX2                !
 ! R85   R(48,49)                1.4533         estimate D2E/DX2                !
 ! R86   R(48,85)                1.0874         estimate D2E/DX2                !
 ! R87   R(49,50)                1.4364         estimate D2E/DX2                !
 ! R88   R(49,51)                1.386          estimate D2E/DX2                !
 ! R89   R(50,54)                1.3768         estimate D2E/DX2                !
 ! R90   R(51,52)                1.4161         estimate D2E/DX2                !
 ! R91   R(51,84)                1.0885         estimate D2E/DX2                !
 ! R92   R(52,53)                1.4248         estimate D2E/DX2                !
 ! R93   R(52,55)                1.4161         estimate D2E/DX2                !
 ! R94   R(53,54)                1.4084         estimate D2E/DX2                !
 ! R95   R(53,58)                1.4084         estimate D2E/DX2                !
 ! R96   R(54,103)               1.0849         estimate D2E/DX2                !
 ! R97   R(55,56)                1.386          estimate D2E/DX2                !
 ! R98   R(55,83)                1.0885         estimate D2E/DX2                !
 ! R99   R(56,57)                1.4365         estimate D2E/DX2                !
 ! R100  R(56,59)                1.4533         estimate D2E/DX2                !
 ! R101  R(57,58)                1.3768         estimate D2E/DX2                !
 ! R102  R(57,62)                1.4713         estimate D2E/DX2                !
 ! R103  R(58,102)               1.0849         estimate D2E/DX2                !
 ! R104  R(59,60)                1.3492         estimate D2E/DX2                !
 ! R105  R(59,82)                1.0874         estimate D2E/DX2                !
 ! R106  R(60,61)                1.4533         estimate D2E/DX2                !
 ! R107  R(60,81)                1.0874         estimate D2E/DX2                !
 ! R108  R(61,62)                1.4365         estimate D2E/DX2                !
 ! R109  R(61,63)                1.386          estimate D2E/DX2                !
 ! R110  R(62,66)                1.3768         estimate D2E/DX2                !
 ! R111  R(63,64)                1.4161         estimate D2E/DX2                !
 ! R112  R(63,80)                1.0885         estimate D2E/DX2                !
 ! R113  R(64,65)                1.4248         estimate D2E/DX2                !
 ! R114  R(64,67)                1.4161         estimate D2E/DX2                !
 ! R115  R(65,66)                1.4084         estimate D2E/DX2                !
 ! R116  R(65,70)                1.4084         estimate D2E/DX2                !
 ! R117  R(66,101)               1.0849         estimate D2E/DX2                !
 ! R118  R(67,68)                1.386          estimate D2E/DX2                !
 ! R119  R(67,79)                1.0885         estimate D2E/DX2                !
 ! R120  R(68,69)                1.4364         estimate D2E/DX2                !
 ! R121  R(68,71)                1.4533         estimate D2E/DX2                !
 ! R122  R(69,70)                1.3768         estimate D2E/DX2                !
 ! R123  R(70,100)               1.0849         estimate D2E/DX2                !
 ! R124  R(71,72)                1.3492         estimate D2E/DX2                !
 ! R125  R(71,78)                1.0874         estimate D2E/DX2                !
 ! R126  R(72,77)                1.0874         estimate D2E/DX2                !
 ! A1    A(2,1,6)              121.7919         estimate D2E/DX2                !
 ! A2    A(2,1,95)             119.2219         estimate D2E/DX2                !
 ! A3    A(6,1,95)             118.9862         estimate D2E/DX2                !
 ! A4    A(1,2,3)              119.9872         estimate D2E/DX2                !
 ! A5    A(1,2,23)             121.6484         estimate D2E/DX2                !
 ! A6    A(3,2,23)             118.3644         estimate D2E/DX2                !
 ! A7    A(2,3,4)              118.4266         estimate D2E/DX2                !
 ! A8    A(2,3,26)             119.6068         estimate D2E/DX2                !
 ! A9    A(4,3,26)             121.9666         estimate D2E/DX2                !
 ! A10   A(3,4,5)              122.2305         estimate D2E/DX2                !
 ! A11   A(3,4,108)            120.9088         estimate D2E/DX2                !
 ! A12   A(5,4,108)            116.8607         estimate D2E/DX2                !
 ! A13   A(4,5,6)              119.7354         estimate D2E/DX2                !
 ! A14   A(4,5,7)              120.5321         estimate D2E/DX2                !
 ! A15   A(6,5,7)              119.7325         estimate D2E/DX2                !
 ! A16   A(1,6,5)              117.8282         estimate D2E/DX2                !
 ! A17   A(1,6,10)             124.3401         estimate D2E/DX2                !
 ! A18   A(5,6,10)             117.8317         estimate D2E/DX2                !
 ! A19   A(5,7,8)              122.2298         estimate D2E/DX2                !
 ! A20   A(5,7,97)             116.8645         estimate D2E/DX2                !
 ! A21   A(8,7,97)             120.9057         estimate D2E/DX2                !
 ! A22   A(7,8,9)              118.4315         estimate D2E/DX2                !
 ! A23   A(7,8,11)             121.9603         estimate D2E/DX2                !
 ! A24   A(9,8,11)             119.6082         estimate D2E/DX2                !
 ! A25   A(8,9,10)             119.9851         estimate D2E/DX2                !
 ! A26   A(8,9,14)             118.3641         estimate D2E/DX2                !
 ! A27   A(10,9,14)            121.6508         estimate D2E/DX2                !
 ! A28   A(6,10,9)             121.7896         estimate D2E/DX2                !
 ! A29   A(6,10,96)            118.9898         estimate D2E/DX2                !
 ! A30   A(9,10,96)            119.2206         estimate D2E/DX2                !
 ! A31   A(8,11,12)            119.6059         estimate D2E/DX2                !
 ! A32   A(8,11,15)            121.9598         estimate D2E/DX2                !
 ! A33   A(12,11,15)           118.4343         estimate D2E/DX2                !
 ! A34   A(11,12,13)           118.3651         estimate D2E/DX2                !
 ! A35   A(11,12,18)           119.9813         estimate D2E/DX2                !
 ! A36   A(13,12,18)           121.6536         estimate D2E/DX2                !
 ! A37   A(12,13,14)           122.0276         estimate D2E/DX2                !
 ! A38   A(12,13,74)           117.8567         estimate D2E/DX2                !
 ! A39   A(14,13,74)           120.1156         estimate D2E/DX2                !
 ! A40   A(9,14,13)            122.0291         estimate D2E/DX2                !
 ! A41   A(9,14,73)            117.8579         estimate D2E/DX2                !
 ! A42   A(13,14,73)           120.113          estimate D2E/DX2                !
 ! A43   A(11,15,16)           122.2305         estimate D2E/DX2                !
 ! A44   A(11,15,98)           120.8885         estimate D2E/DX2                !
 ! A45   A(16,15,98)           116.881          estimate D2E/DX2                !
 ! A46   A(15,16,17)           119.728          estimate D2E/DX2                !
 ! A47   A(15,16,19)           120.544          estimate D2E/DX2                !
 ! A48   A(17,16,19)           119.728          estimate D2E/DX2                !
 ! A49   A(16,17,18)           117.8345         estimate D2E/DX2                !
 ! A50   A(16,17,22)           117.8345         estimate D2E/DX2                !
 ! A51   A(18,17,22)           124.331          estimate D2E/DX2                !
 ! A52   A(12,18,17)           121.7914         estimate D2E/DX2                !
 ! A53   A(12,18,75)           119.221          estimate D2E/DX2                !
 ! A54   A(17,18,75)           118.9876         estimate D2E/DX2                !
 ! A55   A(16,19,20)           122.2305         estimate D2E/DX2                !
 ! A56   A(16,19,99)           116.881          estimate D2E/DX2                !
 ! A57   A(20,19,99)           120.8885         estimate D2E/DX2                !
 ! A58   A(19,20,21)           118.4343         estimate D2E/DX2                !
 ! A59   A(19,20,69)           121.9598         estimate D2E/DX2                !
 ! A60   A(21,20,69)           119.6059         estimate D2E/DX2                !
 ! A61   A(20,21,22)           119.9813         estimate D2E/DX2                !
 ! A62   A(20,21,72)           118.3651         estimate D2E/DX2                !
 ! A63   A(22,21,72)           121.6536         estimate D2E/DX2                !
 ! A64   A(17,22,21)           121.7914         estimate D2E/DX2                !
 ! A65   A(17,22,76)           118.9876         estimate D2E/DX2                !
 ! A66   A(21,22,76)           119.221          estimate D2E/DX2                !
 ! A67   A(2,23,24)            122.0289         estimate D2E/DX2                !
 ! A68   A(2,23,94)            117.8538         estimate D2E/DX2                !
 ! A69   A(24,23,94)           120.1174         estimate D2E/DX2                !
 ! A70   A(23,24,25)           122.0289         estimate D2E/DX2                !
 ! A71   A(23,24,93)           120.1173         estimate D2E/DX2                !
 ! A72   A(25,24,93)           117.8538         estimate D2E/DX2                !
 ! A73   A(24,25,26)           118.3644         estimate D2E/DX2                !
 ! A74   A(24,25,27)           121.6484         estimate D2E/DX2                !
 ! A75   A(26,25,27)           119.9872         estimate D2E/DX2                !
 ! A76   A(3,26,25)            119.6068         estimate D2E/DX2                !
 ! A77   A(3,26,30)            121.9666         estimate D2E/DX2                !
 ! A78   A(25,26,30)           118.4266         estimate D2E/DX2                !
 ! A79   A(25,27,28)           121.7919         estimate D2E/DX2                !
 ! A80   A(25,27,92)           119.2219         estimate D2E/DX2                !
 ! A81   A(28,27,92)           118.9862         estimate D2E/DX2                !
 ! A82   A(27,28,29)           117.8282         estimate D2E/DX2                !
 ! A83   A(27,28,31)           124.3401         estimate D2E/DX2                !
 ! A84   A(29,28,31)           117.8317         estimate D2E/DX2                !
 ! A85   A(28,29,30)           119.7354         estimate D2E/DX2                !
 ! A86   A(28,29,34)           119.7325         estimate D2E/DX2                !
 ! A87   A(30,29,34)           120.5321         estimate D2E/DX2                !
 ! A88   A(26,30,29)           122.2305         estimate D2E/DX2                !
 ! A89   A(26,30,107)          120.9088         estimate D2E/DX2                !
 ! A90   A(29,30,107)          116.8607         estimate D2E/DX2                !
 ! A91   A(28,31,32)           121.7896         estimate D2E/DX2                !
 ! A92   A(28,31,91)           118.9898         estimate D2E/DX2                !
 ! A93   A(32,31,91)           119.2206         estimate D2E/DX2                !
 ! A94   A(31,32,33)           119.9851         estimate D2E/DX2                !
 ! A95   A(31,32,35)           121.6508         estimate D2E/DX2                !
 ! A96   A(33,32,35)           118.3641         estimate D2E/DX2                !
 ! A97   A(32,33,34)           118.4315         estimate D2E/DX2                !
 ! A98   A(32,33,38)           119.6082         estimate D2E/DX2                !
 ! A99   A(34,33,38)           121.9603         estimate D2E/DX2                !
 ! A100  A(29,34,33)           122.2298         estimate D2E/DX2                !
 ! A101  A(29,34,106)          116.8645         estimate D2E/DX2                !
 ! A102  A(33,34,106)          120.9057         estimate D2E/DX2                !
 ! A103  A(32,35,36)           122.0291         estimate D2E/DX2                !
 ! A104  A(32,35,90)           117.8579         estimate D2E/DX2                !
 ! A105  A(36,35,90)           120.113          estimate D2E/DX2                !
 ! A106  A(35,36,37)           122.0276         estimate D2E/DX2                !
 ! A107  A(35,36,89)           120.1156         estimate D2E/DX2                !
 ! A108  A(37,36,89)           117.8567         estimate D2E/DX2                !
 ! A109  A(36,37,38)           118.3651         estimate D2E/DX2                !
 ! A110  A(36,37,39)           121.6536         estimate D2E/DX2                !
 ! A111  A(38,37,39)           119.9813         estimate D2E/DX2                !
 ! A112  A(33,38,37)           119.6059         estimate D2E/DX2                !
 ! A113  A(33,38,42)           121.9598         estimate D2E/DX2                !
 ! A114  A(37,38,42)           118.4343         estimate D2E/DX2                !
 ! A115  A(37,39,40)           121.7914         estimate D2E/DX2                !
 ! A116  A(37,39,88)           119.221          estimate D2E/DX2                !
 ! A117  A(40,39,88)           118.9876         estimate D2E/DX2                !
 ! A118  A(39,40,41)           117.8345         estimate D2E/DX2                !
 ! A119  A(39,40,43)           124.331          estimate D2E/DX2                !
 ! A120  A(41,40,43)           117.8345         estimate D2E/DX2                !
 ! A121  A(40,41,42)           119.728          estimate D2E/DX2                !
 ! A122  A(40,41,46)           119.728          estimate D2E/DX2                !
 ! A123  A(42,41,46)           120.544          estimate D2E/DX2                !
 ! A124  A(38,42,41)           122.2305         estimate D2E/DX2                !
 ! A125  A(38,42,105)          120.8885         estimate D2E/DX2                !
 ! A126  A(41,42,105)          116.881          estimate D2E/DX2                !
 ! A127  A(40,43,44)           121.7914         estimate D2E/DX2                !
 ! A128  A(40,43,87)           118.9876         estimate D2E/DX2                !
 ! A129  A(44,43,87)           119.221          estimate D2E/DX2                !
 ! A130  A(43,44,45)           119.9813         estimate D2E/DX2                !
 ! A131  A(43,44,47)           121.6536         estimate D2E/DX2                !
 ! A132  A(45,44,47)           118.3651         estimate D2E/DX2                !
 ! A133  A(44,45,46)           118.4343         estimate D2E/DX2                !
 ! A134  A(44,45,50)           119.6059         estimate D2E/DX2                !
 ! A135  A(46,45,50)           121.9598         estimate D2E/DX2                !
 ! A136  A(41,46,45)           122.2305         estimate D2E/DX2                !
 ! A137  A(41,46,104)          116.881          estimate D2E/DX2                !
 ! A138  A(45,46,104)          120.8885         estimate D2E/DX2                !
 ! A139  A(44,47,48)           122.0276         estimate D2E/DX2                !
 ! A140  A(44,47,86)           117.8567         estimate D2E/DX2                !
 ! A141  A(48,47,86)           120.1156         estimate D2E/DX2                !
 ! A142  A(47,48,49)           122.0291         estimate D2E/DX2                !
 ! A143  A(47,48,85)           120.113          estimate D2E/DX2                !
 ! A144  A(49,48,85)           117.8579         estimate D2E/DX2                !
 ! A145  A(48,49,50)           118.3641         estimate D2E/DX2                !
 ! A146  A(48,49,51)           121.6508         estimate D2E/DX2                !
 ! A147  A(50,49,51)           119.9851         estimate D2E/DX2                !
 ! A148  A(45,50,49)           119.6082         estimate D2E/DX2                !
 ! A149  A(45,50,54)           121.9603         estimate D2E/DX2                !
 ! A150  A(49,50,54)           118.4315         estimate D2E/DX2                !
 ! A151  A(49,51,52)           121.7896         estimate D2E/DX2                !
 ! A152  A(49,51,84)           119.2206         estimate D2E/DX2                !
 ! A153  A(52,51,84)           118.9898         estimate D2E/DX2                !
 ! A154  A(51,52,53)           117.8317         estimate D2E/DX2                !
 ! A155  A(51,52,55)           124.3401         estimate D2E/DX2                !
 ! A156  A(53,52,55)           117.8282         estimate D2E/DX2                !
 ! A157  A(52,53,54)           119.7325         estimate D2E/DX2                !
 ! A158  A(52,53,58)           119.7354         estimate D2E/DX2                !
 ! A159  A(54,53,58)           120.5321         estimate D2E/DX2                !
 ! A160  A(50,54,53)           122.2298         estimate D2E/DX2                !
 ! A161  A(50,54,103)          120.9057         estimate D2E/DX2                !
 ! A162  A(53,54,103)          116.8645         estimate D2E/DX2                !
 ! A163  A(52,55,56)           121.7919         estimate D2E/DX2                !
 ! A164  A(52,55,83)           118.9862         estimate D2E/DX2                !
 ! A165  A(56,55,83)           119.2219         estimate D2E/DX2                !
 ! A166  A(55,56,57)           119.9872         estimate D2E/DX2                !
 ! A167  A(55,56,59)           121.6484         estimate D2E/DX2                !
 ! A168  A(57,56,59)           118.3644         estimate D2E/DX2                !
 ! A169  A(56,57,58)           118.4266         estimate D2E/DX2                !
 ! A170  A(56,57,62)           119.6068         estimate D2E/DX2                !
 ! A171  A(58,57,62)           121.9666         estimate D2E/DX2                !
 ! A172  A(53,58,57)           122.2305         estimate D2E/DX2                !
 ! A173  A(53,58,102)          116.8607         estimate D2E/DX2                !
 ! A174  A(57,58,102)          120.9088         estimate D2E/DX2                !
 ! A175  A(56,59,60)           122.0289         estimate D2E/DX2                !
 ! A176  A(56,59,82)           117.8538         estimate D2E/DX2                !
 ! A177  A(60,59,82)           120.1174         estimate D2E/DX2                !
 ! A178  A(59,60,61)           122.0289         estimate D2E/DX2                !
 ! A179  A(59,60,81)           120.1173         estimate D2E/DX2                !
 ! A180  A(61,60,81)           117.8538         estimate D2E/DX2                !
 ! A181  A(60,61,62)           118.3644         estimate D2E/DX2                !
 ! A182  A(60,61,63)           121.6484         estimate D2E/DX2                !
 ! A183  A(62,61,63)           119.9872         estimate D2E/DX2                !
 ! A184  A(57,62,61)           119.6068         estimate D2E/DX2                !
 ! A185  A(57,62,66)           121.9666         estimate D2E/DX2                !
 ! A186  A(61,62,66)           118.4266         estimate D2E/DX2                !
 ! A187  A(61,63,64)           121.7919         estimate D2E/DX2                !
 ! A188  A(61,63,80)           119.2219         estimate D2E/DX2                !
 ! A189  A(64,63,80)           118.9862         estimate D2E/DX2                !
 ! A190  A(63,64,65)           117.8282         estimate D2E/DX2                !
 ! A191  A(63,64,67)           124.3401         estimate D2E/DX2                !
 ! A192  A(65,64,67)           117.8317         estimate D2E/DX2                !
 ! A193  A(64,65,66)           119.7354         estimate D2E/DX2                !
 ! A194  A(64,65,70)           119.7325         estimate D2E/DX2                !
 ! A195  A(66,65,70)           120.5321         estimate D2E/DX2                !
 ! A196  A(62,66,65)           122.2305         estimate D2E/DX2                !
 ! A197  A(62,66,101)          120.9088         estimate D2E/DX2                !
 ! A198  A(65,66,101)          116.8607         estimate D2E/DX2                !
 ! A199  A(64,67,68)           121.7896         estimate D2E/DX2                !
 ! A200  A(64,67,79)           118.9898         estimate D2E/DX2                !
 ! A201  A(68,67,79)           119.2206         estimate D2E/DX2                !
 ! A202  A(67,68,69)           119.9851         estimate D2E/DX2                !
 ! A203  A(67,68,71)           121.6508         estimate D2E/DX2                !
 ! A204  A(69,68,71)           118.3641         estimate D2E/DX2                !
 ! A205  A(20,69,68)           119.6082         estimate D2E/DX2                !
 ! A206  A(20,69,70)           121.9603         estimate D2E/DX2                !
 ! A207  A(68,69,70)           118.4315         estimate D2E/DX2                !
 ! A208  A(65,70,69)           122.2298         estimate D2E/DX2                !
 ! A209  A(65,70,100)          116.8645         estimate D2E/DX2                !
 ! A210  A(69,70,100)          120.9057         estimate D2E/DX2                !
 ! A211  A(68,71,72)           122.0291         estimate D2E/DX2                !
 ! A212  A(68,71,78)           117.8579         estimate D2E/DX2                !
 ! A213  A(72,71,78)           120.113          estimate D2E/DX2                !
 ! A214  A(21,72,71)           122.0276         estimate D2E/DX2                !
 ! A215  A(21,72,77)           117.8567         estimate D2E/DX2                !
 ! A216  A(71,72,77)           120.1156         estimate D2E/DX2                !
 ! D1    D(6,1,2,3)              0.0            estimate D2E/DX2                !
 ! D2    D(6,1,2,23)           180.0            estimate D2E/DX2                !
 ! D3    D(95,1,2,3)           180.0            estimate D2E/DX2                !
 ! D4    D(95,1,2,23)            0.0            estimate D2E/DX2                !
 ! D5    D(2,1,6,5)              0.0            estimate D2E/DX2                !
 ! D6    D(2,1,6,10)           180.0            estimate D2E/DX2                !
 ! D7    D(95,1,6,5)           180.0            estimate D2E/DX2                !
 ! D8    D(95,1,6,10)            0.0            estimate D2E/DX2                !
 ! D9    D(1,2,3,4)              0.0            estimate D2E/DX2                !
 ! D10   D(1,2,3,26)           180.0            estimate D2E/DX2                !
 ! D11   D(23,2,3,4)           180.0            estimate D2E/DX2                !
 ! D12   D(23,2,3,26)            0.0            estimate D2E/DX2                !
 ! D13   D(1,2,23,24)          180.0            estimate D2E/DX2                !
 ! D14   D(1,2,23,94)            0.0            estimate D2E/DX2                !
 ! D15   D(3,2,23,24)            0.0            estimate D2E/DX2                !
 ! D16   D(3,2,23,94)          180.0            estimate D2E/DX2                !
 ! D17   D(2,3,4,5)              0.0            estimate D2E/DX2                !
 ! D18   D(2,3,4,108)          180.0            estimate D2E/DX2                !
 ! D19   D(26,3,4,5)           180.0            estimate D2E/DX2                !
 ! D20   D(26,3,4,108)           0.0            estimate D2E/DX2                !
 ! D21   D(2,3,26,25)            0.0            estimate D2E/DX2                !
 ! D22   D(2,3,26,30)          180.0            estimate D2E/DX2                !
 ! D23   D(4,3,26,25)          180.0            estimate D2E/DX2                !
 ! D24   D(4,3,26,30)            0.0            estimate D2E/DX2                !
 ! D25   D(3,4,5,6)              0.0            estimate D2E/DX2                !
 ! D26   D(3,4,5,7)            180.0            estimate D2E/DX2                !
 ! D27   D(108,4,5,6)          180.0            estimate D2E/DX2                !
 ! D28   D(108,4,5,7)            0.0            estimate D2E/DX2                !
 ! D29   D(4,5,6,1)              0.0            estimate D2E/DX2                !
 ! D30   D(4,5,6,10)           180.0            estimate D2E/DX2                !
 ! D31   D(7,5,6,1)            180.0            estimate D2E/DX2                !
 ! D32   D(7,5,6,10)             0.0            estimate D2E/DX2                !
 ! D33   D(4,5,7,8)            180.0            estimate D2E/DX2                !
 ! D34   D(4,5,7,97)             0.0            estimate D2E/DX2                !
 ! D35   D(6,5,7,8)              0.0            estimate D2E/DX2                !
 ! D36   D(6,5,7,97)           180.0            estimate D2E/DX2                !
 ! D37   D(1,6,10,9)           180.0            estimate D2E/DX2                !
 ! D38   D(1,6,10,96)            0.0            estimate D2E/DX2                !
 ! D39   D(5,6,10,9)             0.0            estimate D2E/DX2                !
 ! D40   D(5,6,10,96)          180.0            estimate D2E/DX2                !
 ! D41   D(5,7,8,9)              0.0            estimate D2E/DX2                !
 ! D42   D(5,7,8,11)           180.0            estimate D2E/DX2                !
 ! D43   D(97,7,8,9)           180.0            estimate D2E/DX2                !
 ! D44   D(97,7,8,11)            0.0            estimate D2E/DX2                !
 ! D45   D(7,8,9,10)             0.0            estimate D2E/DX2                !
 ! D46   D(7,8,9,14)           180.0            estimate D2E/DX2                !
 ! D47   D(11,8,9,10)          180.0            estimate D2E/DX2                !
 ! D48   D(11,8,9,14)            0.0            estimate D2E/DX2                !
 ! D49   D(7,8,11,12)          180.0            estimate D2E/DX2                !
 ! D50   D(7,8,11,15)            0.0            estimate D2E/DX2                !
 ! D51   D(9,8,11,12)            0.0            estimate D2E/DX2                !
 ! D52   D(9,8,11,15)          180.0            estimate D2E/DX2                !
 ! D53   D(8,9,10,6)             0.0            estimate D2E/DX2                !
 ! D54   D(8,9,10,96)          180.0            estimate D2E/DX2                !
 ! D55   D(14,9,10,6)          180.0            estimate D2E/DX2                !
 ! D56   D(14,9,10,96)           0.0            estimate D2E/DX2                !
 ! D57   D(8,9,14,13)            0.0            estimate D2E/DX2                !
 ! D58   D(8,9,14,73)          180.0            estimate D2E/DX2                !
 ! D59   D(10,9,14,13)         180.0            estimate D2E/DX2                !
 ! D60   D(10,9,14,73)           0.0            estimate D2E/DX2                !
 ! D61   D(8,11,12,13)           0.0            estimate D2E/DX2                !
 ! D62   D(8,11,12,18)         180.0            estimate D2E/DX2                !
 ! D63   D(15,11,12,13)        180.0            estimate D2E/DX2                !
 ! D64   D(15,11,12,18)          0.0            estimate D2E/DX2                !
 ! D65   D(8,11,15,16)         180.0            estimate D2E/DX2                !
 ! D66   D(8,11,15,98)           0.0            estimate D2E/DX2                !
 ! D67   D(12,11,15,16)          0.0            estimate D2E/DX2                !
 ! D68   D(12,11,15,98)        180.0            estimate D2E/DX2                !
 ! D69   D(11,12,13,14)          0.0            estimate D2E/DX2                !
 ! D70   D(11,12,13,74)        180.0            estimate D2E/DX2                !
 ! D71   D(18,12,13,14)        180.0            estimate D2E/DX2                !
 ! D72   D(18,12,13,74)          0.0            estimate D2E/DX2                !
 ! D73   D(11,12,18,17)          0.0            estimate D2E/DX2                !
 ! D74   D(11,12,18,75)        180.0            estimate D2E/DX2                !
 ! D75   D(13,12,18,17)        180.0            estimate D2E/DX2                !
 ! D76   D(13,12,18,75)          0.0            estimate D2E/DX2                !
 ! D77   D(12,13,14,9)           0.0            estimate D2E/DX2                !
 ! D78   D(12,13,14,73)        180.0            estimate D2E/DX2                !
 ! D79   D(74,13,14,9)         180.0            estimate D2E/DX2                !
 ! D80   D(74,13,14,73)          0.0            estimate D2E/DX2                !
 ! D81   D(11,15,16,17)          0.0            estimate D2E/DX2                !
 ! D82   D(11,15,16,19)        180.0            estimate D2E/DX2                !
 ! D83   D(98,15,16,17)        180.0            estimate D2E/DX2                !
 ! D84   D(98,15,16,19)          0.0            estimate D2E/DX2                !
 ! D85   D(15,16,17,18)          0.0            estimate D2E/DX2                !
 ! D86   D(15,16,17,22)        180.0            estimate D2E/DX2                !
 ! D87   D(19,16,17,18)        180.0            estimate D2E/DX2                !
 ! D88   D(19,16,17,22)          0.0            estimate D2E/DX2                !
 ! D89   D(15,16,19,20)        180.0            estimate D2E/DX2                !
 ! D90   D(15,16,19,99)          0.0            estimate D2E/DX2                !
 ! D91   D(17,16,19,20)          0.0            estimate D2E/DX2                !
 ! D92   D(17,16,19,99)        180.0            estimate D2E/DX2                !
 ! D93   D(16,17,18,12)          0.0            estimate D2E/DX2                !
 ! D94   D(16,17,18,75)        180.0            estimate D2E/DX2                !
 ! D95   D(22,17,18,12)        180.0            estimate D2E/DX2                !
 ! D96   D(22,17,18,75)          0.0            estimate D2E/DX2                !
 ! D97   D(16,17,22,21)          0.0            estimate D2E/DX2                !
 ! D98   D(16,17,22,76)        180.0            estimate D2E/DX2                !
 ! D99   D(18,17,22,21)        180.0            estimate D2E/DX2                !
 ! D100  D(18,17,22,76)          0.0            estimate D2E/DX2                !
 ! D101  D(16,19,20,21)          0.0            estimate D2E/DX2                !
 ! D102  D(16,19,20,69)        180.0            estimate D2E/DX2                !
 ! D103  D(99,19,20,21)        180.0            estimate D2E/DX2                !
 ! D104  D(99,19,20,69)          0.0            estimate D2E/DX2                !
 ! D105  D(19,20,21,22)          0.0            estimate D2E/DX2                !
 ! D106  D(19,20,21,72)        180.0            estimate D2E/DX2                !
 ! D107  D(69,20,21,22)        180.0            estimate D2E/DX2                !
 ! D108  D(69,20,21,72)          0.0            estimate D2E/DX2                !
 ! D109  D(19,20,69,68)        180.0            estimate D2E/DX2                !
 ! D110  D(19,20,69,70)          0.0            estimate D2E/DX2                !
 ! D111  D(21,20,69,68)          0.0            estimate D2E/DX2                !
 ! D112  D(21,20,69,70)        180.0            estimate D2E/DX2                !
 ! D113  D(20,21,22,17)          0.0            estimate D2E/DX2                !
 ! D114  D(20,21,22,76)        180.0            estimate D2E/DX2                !
 ! D115  D(72,21,22,17)        180.0            estimate D2E/DX2                !
 ! D116  D(72,21,22,76)          0.0            estimate D2E/DX2                !
 ! D117  D(20,21,72,71)          0.0            estimate D2E/DX2                !
 ! D118  D(20,21,72,77)        180.0            estimate D2E/DX2                !
 ! D119  D(22,21,72,71)        180.0            estimate D2E/DX2                !
 ! D120  D(22,21,72,77)          0.0            estimate D2E/DX2                !
 ! D121  D(2,23,24,25)           0.0            estimate D2E/DX2                !
 ! D122  D(2,23,24,93)         180.0            estimate D2E/DX2                !
 ! D123  D(94,23,24,25)        180.0            estimate D2E/DX2                !
 ! D124  D(94,23,24,93)          0.0            estimate D2E/DX2                !
 ! D125  D(23,24,25,26)          0.0            estimate D2E/DX2                !
 ! D126  D(23,24,25,27)        180.0            estimate D2E/DX2                !
 ! D127  D(93,24,25,26)        180.0            estimate D2E/DX2                !
 ! D128  D(93,24,25,27)          0.0            estimate D2E/DX2                !
 ! D129  D(24,25,26,3)           0.0            estimate D2E/DX2                !
 ! D130  D(24,25,26,30)        180.0            estimate D2E/DX2                !
 ! D131  D(27,25,26,3)         180.0            estimate D2E/DX2                !
 ! D132  D(27,25,26,30)          0.0            estimate D2E/DX2                !
 ! D133  D(24,25,27,28)        180.0            estimate D2E/DX2                !
 ! D134  D(24,25,27,92)          0.0            estimate D2E/DX2                !
 ! D135  D(26,25,27,28)          0.0            estimate D2E/DX2                !
 ! D136  D(26,25,27,92)        180.0            estimate D2E/DX2                !
 ! D137  D(3,26,30,29)         180.0            estimate D2E/DX2                !
 ! D138  D(3,26,30,107)          0.0            estimate D2E/DX2                !
 ! D139  D(25,26,30,29)          0.0            estimate D2E/DX2                !
 ! D140  D(25,26,30,107)       180.0            estimate D2E/DX2                !
 ! D141  D(25,27,28,29)          0.0            estimate D2E/DX2                !
 ! D142  D(25,27,28,31)        180.0            estimate D2E/DX2                !
 ! D143  D(92,27,28,29)        180.0            estimate D2E/DX2                !
 ! D144  D(92,27,28,31)          0.0            estimate D2E/DX2                !
 ! D145  D(27,28,29,30)          0.0            estimate D2E/DX2                !
 ! D146  D(27,28,29,34)        180.0            estimate D2E/DX2                !
 ! D147  D(31,28,29,30)        180.0            estimate D2E/DX2                !
 ! D148  D(31,28,29,34)          0.0            estimate D2E/DX2                !
 ! D149  D(27,28,31,32)        180.0            estimate D2E/DX2                !
 ! D150  D(27,28,31,91)          0.0            estimate D2E/DX2                !
 ! D151  D(29,28,31,32)          0.0            estimate D2E/DX2                !
 ! D152  D(29,28,31,91)        180.0            estimate D2E/DX2                !
 ! D153  D(28,29,30,26)          0.0            estimate D2E/DX2                !
 ! D154  D(28,29,30,107)       180.0            estimate D2E/DX2                !
 ! D155  D(34,29,30,26)        180.0            estimate D2E/DX2                !
 ! D156  D(34,29,30,107)         0.0            estimate D2E/DX2                !
 ! D157  D(28,29,34,33)          0.0            estimate D2E/DX2                !
 ! D158  D(28,29,34,106)       180.0            estimate D2E/DX2                !
 ! D159  D(30,29,34,33)        180.0            estimate D2E/DX2                !
 ! D160  D(30,29,34,106)         0.0            estimate D2E/DX2                !
 ! D161  D(28,31,32,33)          0.0            estimate D2E/DX2                !
 ! D162  D(28,31,32,35)        180.0            estimate D2E/DX2                !
 ! D163  D(91,31,32,33)        180.0            estimate D2E/DX2                !
 ! D164  D(91,31,32,35)          0.0            estimate D2E/DX2                !
 ! D165  D(31,32,33,34)          0.0            estimate D2E/DX2                !
 ! D166  D(31,32,33,38)        180.0            estimate D2E/DX2                !
 ! D167  D(35,32,33,34)        180.0            estimate D2E/DX2                !
 ! D168  D(35,32,33,38)          0.0            estimate D2E/DX2                !
 ! D169  D(31,32,35,36)        180.0            estimate D2E/DX2                !
 ! D170  D(31,32,35,90)          0.0            estimate D2E/DX2                !
 ! D171  D(33,32,35,36)          0.0            estimate D2E/DX2                !
 ! D172  D(33,32,35,90)        180.0            estimate D2E/DX2                !
 ! D173  D(32,33,34,29)          0.0            estimate D2E/DX2                !
 ! D174  D(32,33,34,106)       180.0            estimate D2E/DX2                !
 ! D175  D(38,33,34,29)        180.0            estimate D2E/DX2                !
 ! D176  D(38,33,34,106)         0.0            estimate D2E/DX2                !
 ! D177  D(32,33,38,37)          0.0            estimate D2E/DX2                !
 ! D178  D(32,33,38,42)        180.0            estimate D2E/DX2                !
 ! D179  D(34,33,38,37)        180.0            estimate D2E/DX2                !
 ! D180  D(34,33,38,42)          0.0            estimate D2E/DX2                !
 ! D181  D(32,35,36,37)          0.0            estimate D2E/DX2                !
 ! D182  D(32,35,36,89)        180.0            estimate D2E/DX2                !
 ! D183  D(90,35,36,37)        180.0            estimate D2E/DX2                !
 ! D184  D(90,35,36,89)          0.0            estimate D2E/DX2                !
 ! D185  D(35,36,37,38)          0.0            estimate D2E/DX2                !
 ! D186  D(35,36,37,39)        180.0            estimate D2E/DX2                !
 ! D187  D(89,36,37,38)        180.0            estimate D2E/DX2                !
 ! D188  D(89,36,37,39)          0.0            estimate D2E/DX2                !
 ! D189  D(36,37,38,33)          0.0            estimate D2E/DX2                !
 ! D190  D(36,37,38,42)        180.0            estimate D2E/DX2                !
 ! D191  D(39,37,38,33)        180.0            estimate D2E/DX2                !
 ! D192  D(39,37,38,42)          0.0            estimate D2E/DX2                !
 ! D193  D(36,37,39,40)        180.0            estimate D2E/DX2                !
 ! D194  D(36,37,39,88)          0.0            estimate D2E/DX2                !
 ! D195  D(38,37,39,40)          0.0            estimate D2E/DX2                !
 ! D196  D(38,37,39,88)        180.0            estimate D2E/DX2                !
 ! D197  D(33,38,42,41)        180.0            estimate D2E/DX2                !
 ! D198  D(33,38,42,105)         0.0            estimate D2E/DX2                !
 ! D199  D(37,38,42,41)          0.0            estimate D2E/DX2                !
 ! D200  D(37,38,42,105)       180.0            estimate D2E/DX2                !
 ! D201  D(37,39,40,41)          0.0            estimate D2E/DX2                !
 ! D202  D(37,39,40,43)        180.0            estimate D2E/DX2                !
 ! D203  D(88,39,40,41)        180.0            estimate D2E/DX2                !
 ! D204  D(88,39,40,43)          0.0            estimate D2E/DX2                !
 ! D205  D(39,40,41,42)          0.0            estimate D2E/DX2                !
 ! D206  D(39,40,41,46)        180.0            estimate D2E/DX2                !
 ! D207  D(43,40,41,42)        180.0            estimate D2E/DX2                !
 ! D208  D(43,40,41,46)          0.0            estimate D2E/DX2                !
 ! D209  D(39,40,43,44)        180.0            estimate D2E/DX2                !
 ! D210  D(39,40,43,87)          0.0            estimate D2E/DX2                !
 ! D211  D(41,40,43,44)          0.0            estimate D2E/DX2                !
 ! D212  D(41,40,43,87)        180.0            estimate D2E/DX2                !
 ! D213  D(40,41,42,38)          0.0            estimate D2E/DX2                !
 ! D214  D(40,41,42,105)       180.0            estimate D2E/DX2                !
 ! D215  D(46,41,42,38)        180.0            estimate D2E/DX2                !
 ! D216  D(46,41,42,105)         0.0            estimate D2E/DX2                !
 ! D217  D(40,41,46,45)          0.0            estimate D2E/DX2                !
 ! D218  D(40,41,46,104)       180.0            estimate D2E/DX2                !
 ! D219  D(42,41,46,45)        180.0            estimate D2E/DX2                !
 ! D220  D(42,41,46,104)         0.0            estimate D2E/DX2                !
 ! D221  D(40,43,44,45)          0.0            estimate D2E/DX2                !
 ! D222  D(40,43,44,47)        180.0            estimate D2E/DX2                !
 ! D223  D(87,43,44,45)        180.0            estimate D2E/DX2                !
 ! D224  D(87,43,44,47)          0.0            estimate D2E/DX2                !
 ! D225  D(43,44,45,46)          0.0            estimate D2E/DX2                !
 ! D226  D(43,44,45,50)        180.0            estimate D2E/DX2                !
 ! D227  D(47,44,45,46)        180.0            estimate D2E/DX2                !
 ! D228  D(47,44,45,50)          0.0            estimate D2E/DX2                !
 ! D229  D(43,44,47,48)        180.0            estimate D2E/DX2                !
 ! D230  D(43,44,47,86)          0.0            estimate D2E/DX2                !
 ! D231  D(45,44,47,48)          0.0            estimate D2E/DX2                !
 ! D232  D(45,44,47,86)        180.0            estimate D2E/DX2                !
 ! D233  D(44,45,46,41)          0.0            estimate D2E/DX2                !
 ! D234  D(44,45,46,104)       180.0            estimate D2E/DX2                !
 ! D235  D(50,45,46,41)        180.0            estimate D2E/DX2                !
 ! D236  D(50,45,46,104)         0.0            estimate D2E/DX2                !
 ! D237  D(44,45,50,49)          0.0            estimate D2E/DX2                !
 ! D238  D(44,45,50,54)        180.0            estimate D2E/DX2                !
 ! D239  D(46,45,50,49)        180.0            estimate D2E/DX2                !
 ! D240  D(46,45,50,54)          0.0            estimate D2E/DX2                !
 ! D241  D(44,47,48,49)          0.0            estimate D2E/DX2                !
 ! D242  D(44,47,48,85)        180.0            estimate D2E/DX2                !
 ! D243  D(86,47,48,49)        180.0            estimate D2E/DX2                !
 ! D244  D(86,47,48,85)          0.0            estimate D2E/DX2                !
 ! D245  D(47,48,49,50)          0.0            estimate D2E/DX2                !
 ! D246  D(47,48,49,51)        180.0            estimate D2E/DX2                !
 ! D247  D(85,48,49,50)        180.0            estimate D2E/DX2                !
 ! D248  D(85,48,49,51)          0.0            estimate D2E/DX2                !
 ! D249  D(48,49,50,45)          0.0            estimate D2E/DX2                !
 ! D250  D(48,49,50,54)        180.0            estimate D2E/DX2                !
 ! D251  D(51,49,50,45)        180.0            estimate D2E/DX2                !
 ! D252  D(51,49,50,54)          0.0            estimate D2E/DX2                !
 ! D253  D(48,49,51,52)        180.0            estimate D2E/DX2                !
 ! D254  D(48,49,51,84)          0.0            estimate D2E/DX2                !
 ! D255  D(50,49,51,52)          0.0            estimate D2E/DX2                !
 ! D256  D(50,49,51,84)        180.0            estimate D2E/DX2                !
 ! D257  D(45,50,54,53)        180.0            estimate D2E/DX2                !
 ! D258  D(45,50,54,103)         0.0            estimate D2E/DX2                !
 ! D259  D(49,50,54,53)          0.0            estimate D2E/DX2                !
 ! D260  D(49,50,54,103)       180.0            estimate D2E/DX2                !
 ! D261  D(49,51,52,53)          0.0            estimate D2E/DX2                !
 ! D262  D(49,51,52,55)        180.0            estimate D2E/DX2                !
 ! D263  D(84,51,52,53)        180.0            estimate D2E/DX2                !
 ! D264  D(84,51,52,55)          0.0            estimate D2E/DX2                !
 ! D265  D(51,52,53,54)          0.0            estimate D2E/DX2                !
 ! D266  D(51,52,53,58)        180.0            estimate D2E/DX2                !
 ! D267  D(55,52,53,54)        180.0            estimate D2E/DX2                !
 ! D268  D(55,52,53,58)          0.0            estimate D2E/DX2                !
 ! D269  D(51,52,55,56)        180.0            estimate D2E/DX2                !
 ! D270  D(51,52,55,83)          0.0            estimate D2E/DX2                !
 ! D271  D(53,52,55,56)          0.0            estimate D2E/DX2                !
 ! D272  D(53,52,55,83)        180.0            estimate D2E/DX2                !
 ! D273  D(52,53,54,50)          0.0            estimate D2E/DX2                !
 ! D274  D(52,53,54,103)       180.0            estimate D2E/DX2                !
 ! D275  D(58,53,54,50)        180.0            estimate D2E/DX2                !
 ! D276  D(58,53,54,103)         0.0            estimate D2E/DX2                !
 ! D277  D(52,53,58,57)          0.0            estimate D2E/DX2                !
 ! D278  D(52,53,58,102)       180.0            estimate D2E/DX2                !
 ! D279  D(54,53,58,57)        180.0            estimate D2E/DX2                !
 ! D280  D(54,53,58,102)         0.0            estimate D2E/DX2                !
 ! D281  D(52,55,56,57)          0.0            estimate D2E/DX2                !
 ! D282  D(52,55,56,59)        180.0            estimate D2E/DX2                !
 ! D283  D(83,55,56,57)        180.0            estimate D2E/DX2                !
 ! D284  D(83,55,56,59)          0.0            estimate D2E/DX2                !
 ! D285  D(55,56,57,58)          0.0            estimate D2E/DX2                !
 ! D286  D(55,56,57,62)        180.0            estimate D2E/DX2                !
 ! D287  D(59,56,57,58)        180.0            estimate D2E/DX2                !
 ! D288  D(59,56,57,62)          0.0            estimate D2E/DX2                !
 ! D289  D(55,56,59,60)        180.0            estimate D2E/DX2                !
 ! D290  D(55,56,59,82)          0.0            estimate D2E/DX2                !
 ! D291  D(57,56,59,60)          0.0            estimate D2E/DX2                !
 ! D292  D(57,56,59,82)        180.0            estimate D2E/DX2                !
 ! D293  D(56,57,58,53)          0.0            estimate D2E/DX2                !
 ! D294  D(56,57,58,102)       180.0            estimate D2E/DX2                !
 ! D295  D(62,57,58,53)        180.0            estimate D2E/DX2                !
 ! D296  D(62,57,58,102)         0.0            estimate D2E/DX2                !
 ! D297  D(56,57,62,61)          0.0            estimate D2E/DX2                !
 ! D298  D(56,57,62,66)        180.0            estimate D2E/DX2                !
 ! D299  D(58,57,62,61)        180.0            estimate D2E/DX2                !
 ! D300  D(58,57,62,66)          0.0            estimate D2E/DX2                !
 ! D301  D(56,59,60,61)          0.0            estimate D2E/DX2                !
 ! D302  D(56,59,60,81)        180.0            estimate D2E/DX2                !
 ! D303  D(82,59,60,61)        180.0            estimate D2E/DX2                !
 ! D304  D(82,59,60,81)          0.0            estimate D2E/DX2                !
 ! D305  D(59,60,61,62)          0.0            estimate D2E/DX2                !
 ! D306  D(59,60,61,63)        180.0            estimate D2E/DX2                !
 ! D307  D(81,60,61,62)        180.0            estimate D2E/DX2                !
 ! D308  D(81,60,61,63)          0.0            estimate D2E/DX2                !
 ! D309  D(60,61,62,57)          0.0            estimate D2E/DX2                !
 ! D310  D(60,61,62,66)        180.0            estimate D2E/DX2                !
 ! D311  D(63,61,62,57)        180.0            estimate D2E/DX2                !
 ! D312  D(63,61,62,66)          0.0            estimate D2E/DX2                !
 ! D313  D(60,61,63,64)        180.0            estimate D2E/DX2                !
 ! D314  D(60,61,63,80)          0.0            estimate D2E/DX2                !
 ! D315  D(62,61,63,64)          0.0            estimate D2E/DX2                !
 ! D316  D(62,61,63,80)        180.0            estimate D2E/DX2                !
 ! D317  D(57,62,66,65)        180.0            estimate D2E/DX2                !
 ! D318  D(57,62,66,101)         0.0            estimate D2E/DX2                !
 ! D319  D(61,62,66,65)          0.0            estimate D2E/DX2                !
 ! D320  D(61,62,66,101)       180.0            estimate D2E/DX2                !
 ! D321  D(61,63,64,65)          0.0            estimate D2E/DX2                !
 ! D322  D(61,63,64,67)        180.0            estimate D2E/DX2                !
 ! D323  D(80,63,64,65)        180.0            estimate D2E/DX2                !
 ! D324  D(80,63,64,67)          0.0            estimate D2E/DX2                !
 ! D325  D(63,64,65,66)          0.0            estimate D2E/DX2                !
 ! D326  D(63,64,65,70)        180.0            estimate D2E/DX2                !
 ! D327  D(67,64,65,66)        180.0            estimate D2E/DX2                !
 ! D328  D(67,64,65,70)          0.0            estimate D2E/DX2                !
 ! D329  D(63,64,67,68)        180.0            estimate D2E/DX2                !
 ! D330  D(63,64,67,79)          0.0            estimate D2E/DX2                !
 ! D331  D(65,64,67,68)          0.0            estimate D2E/DX2                !
 ! D332  D(65,64,67,79)        180.0            estimate D2E/DX2                !
 ! D333  D(64,65,66,62)          0.0            estimate D2E/DX2                !
 ! D334  D(64,65,66,101)       180.0            estimate D2E/DX2                !
 ! D335  D(70,65,66,62)        180.0            estimate D2E/DX2                !
 ! D336  D(70,65,66,101)         0.0            estimate D2E/DX2                !
 ! D337  D(64,65,70,69)          0.0            estimate D2E/DX2                !
 ! D338  D(64,65,70,100)       180.0            estimate D2E/DX2                !
 ! D339  D(66,65,70,69)        180.0            estimate D2E/DX2                !
 ! D340  D(66,65,70,100)         0.0            estimate D2E/DX2                !
 ! D341  D(64,67,68,69)          0.0            estimate D2E/DX2                !
 ! D342  D(64,67,68,71)        180.0            estimate D2E/DX2                !
 ! D343  D(79,67,68,69)        180.0            estimate D2E/DX2                !
 ! D344  D(79,67,68,71)          0.0            estimate D2E/DX2                !
 ! D345  D(67,68,69,20)        180.0            estimate D2E/DX2                !
 ! D346  D(67,68,69,70)          0.0            estimate D2E/DX2                !
 ! D347  D(71,68,69,20)          0.0            estimate D2E/DX2                !
 ! D348  D(71,68,69,70)        180.0            estimate D2E/DX2                !
 ! D349  D(67,68,71,72)        180.0            estimate D2E/DX2                !
 ! D350  D(67,68,71,78)          0.0            estimate D2E/DX2                !
 ! D351  D(69,68,71,72)          0.0            estimate D2E/DX2                !
 ! D352  D(69,68,71,78)        180.0            estimate D2E/DX2                !
 ! D353  D(20,69,70,65)        180.0            estimate D2E/DX2                !
 ! D354  D(20,69,70,100)         0.0            estimate D2E/DX2                !
 ! D355  D(68,69,70,65)          0.0            estimate D2E/DX2                !
 ! D356  D(68,69,70,100)       180.0            estimate D2E/DX2                !
 ! D357  D(68,71,72,21)          0.0            estimate D2E/DX2                !
 ! D358  D(68,71,72,77)        180.0            estimate D2E/DX2                !
 ! D359  D(78,71,72,21)        180.0            estimate D2E/DX2                !
 ! D360  D(78,71,72,77)          0.0            estimate D2E/DX2                !
 --------------------------------------------------------------------------------
 Trust Radius=3.00D-01 FncErr=1.00D-07 GrdErr=1.00D-06 EigMax=2.50D+02 EigMin=1.00D-04
 Number of steps in this run=    648 maximum allowed number of steps=    648.
 GradGradGradGradGradGradGradGradGradGradGradGradGradGradGradGradGradGrad

 Stoichiometry    C72H36
 Framework group  C2H[SGH(C72H36)]
 Deg. of freedom   107
 Full point group                 C2H     NOp   4
 Largest Abelian subgroup         C2H     NOp   4
 Largest concise Abelian subgroup C2      NOp   2
                         Standard orientation:                         
 ---------------------------------------------------------------------
 Center     Atomic      Atomic             Coordinates (Angstroms)
 Number     Number       Type             X           Y           Z
 ---------------------------------------------------------------------
      1          6           0       -7.408592    2.831317    0.000000
      2          6           0       -7.399389    1.445342    0.000000
      3          6           0       -6.150479    0.735667    0.000000
      4          6           0       -4.982448    1.464587    0.000000
      5          6           0       -4.975960    2.872963    0.000000
      6          6           0       -6.209905    3.585364    0.000000
      7          6           0       -3.759575    3.582854    0.000000
      8          6           0       -3.712446    4.958857    0.000000
      9          6           0       -4.951452    5.685577    0.000000
     10          6           0       -6.156339    5.000499    0.000000
     11          6           0       -2.438204    5.694502    0.000000
     12          6           0       -2.448052    7.130885    0.000000
     13          6           0       -3.731573    7.812549    0.000000
     14          6           0       -4.899998    7.137956    0.000000
     15          6           0       -1.223011    5.047243    0.000000
     16          6           0        0.000000    5.745629    0.000000
     17          6           0        0.000000    7.170477    0.000000
     18          6           0       -1.252298    7.831703    0.000000
     19          6           0        1.223011    5.047243    0.000000
     20          6           0        2.438204    5.694502    0.000000
     21          6           0        2.448052    7.130885    0.000000
     22          6           0        1.252298    7.831703    0.000000
     23          6           0       -8.631451    0.674601    0.000000
     24          6           0       -8.631451   -0.674601    0.000000
     25          6           0       -7.399389   -1.445342    0.000000
     26          6           0       -6.150479   -0.735667    0.000000
     27          6           0       -7.408592   -2.831317    0.000000
     28          6           0       -6.209905   -3.585364    0.000000
     29          6           0       -4.975960   -2.872963    0.000000
     30          6           0       -4.982448   -1.464587    0.000000
     31          6           0       -6.156339   -5.000499    0.000000
     32          6           0       -4.951452   -5.685577    0.000000
     33          6           0       -3.712446   -4.958857    0.000000
     34          6           0       -3.759575   -3.582854    0.000000
     35          6           0       -4.899998   -7.137956    0.000000
     36          6           0       -3.731573   -7.812549    0.000000
     37          6           0       -2.448052   -7.130885    0.000000
     38          6           0       -2.438204   -5.694502    0.000000
     39          6           0       -1.252298   -7.831703    0.000000
     40          6           0       -0.000000   -7.170477    0.000000
     41          6           0       -0.000000   -5.745629    0.000000
     42          6           0       -1.223011   -5.047243    0.000000
     43          6           0        1.252298   -7.831703    0.000000
     44          6           0        2.448052   -7.130885    0.000000
     45          6           0        2.438204   -5.694502    0.000000
     46          6           0        1.223011   -5.047243    0.000000
     47          6           0        3.731573   -7.812549    0.000000
     48          6           0        4.899998   -7.137956    0.000000
     49          6           0        4.951452   -5.685577    0.000000
     50          6           0        3.712446   -4.958857    0.000000
     51          6           0        6.156339   -5.000499    0.000000
     52          6           0        6.209905   -3.585364    0.000000
     53          6           0        4.975960   -2.872963    0.000000
     54          6           0        3.759575   -3.582854    0.000000
     55          6           0        7.408592   -2.831317    0.000000
     56          6           0        7.399389   -1.445342    0.000000
     57          6           0        6.150479   -0.735667    0.000000
     58          6           0        4.982448   -1.464587    0.000000
     59          6           0        8.631451   -0.674601    0.000000
     60          6           0        8.631451    0.674601    0.000000
     61          6           0        7.399389    1.445342    0.000000
     62          6           0        6.150479    0.735667    0.000000
     63          6           0        7.408592    2.831317    0.000000
     64          6           0        6.209905    3.585364    0.000000
     65          6           0        4.975960    2.872963    0.000000
     66          6           0        4.982448    1.464587    0.000000
     67          6           0        6.156339    5.000499    0.000000
     68          6           0        4.951452    5.685577    0.000000
     69          6           0        3.712446    4.958857    0.000000
     70          6           0        3.759575    3.582854    0.000000
     71          6           0        4.899998    7.137956    0.000000
     72          6           0        3.731573    7.812549    0.000000
     73          1           0       -5.842748    7.679775    0.000000
     74          1           0       -3.729380    8.899898    0.000000
     75          1           0       -1.274202    8.919957    0.000000
     76          1           0        1.274203    8.919957    0.000000
     77          1           0        3.729380    8.899898    0.000000
     78          1           0        5.842748    7.679775    0.000000
     79          1           0        7.087800    5.563669    0.000000
     80          1           0        8.362056    3.356386    0.000000
     81          1           0        9.572013    1.220206    0.000000
     82          1           0        9.572013   -1.220207    0.000000
     83          1           0        8.362055   -3.356386    0.000000
     84          1           0        7.087800   -5.563669    0.000000
     85          1           0        5.842748   -7.679775    0.000000
     86          1           0        3.729380   -8.899898    0.000000
     87          1           0        1.274202   -8.919957    0.000000
     88          1           0       -1.274203   -8.919957    0.000000
     89          1           0       -3.729380   -8.899898    0.000000
     90          1           0       -5.842748   -7.679775    0.000000
     91          1           0       -7.087800   -5.563669    0.000000
     92          1           0       -8.362056   -3.356386    0.000000
     93          1           0       -9.572013   -1.220206    0.000000
     94          1           0       -9.572013    1.220207    0.000000
     95          1           0       -8.362055    3.356386    0.000000
     96          1           0       -7.087800    5.563669    0.000000
     97          1           0       -2.848314    2.994069    0.000000
     98          1           0       -1.169122    3.963620    0.000000
     99          1           0        1.169122    3.963620    0.000000
    100          1           0        2.848314    2.994069    0.000000
    101          1           0        4.016840    0.969937    0.000000
    102          1           0        4.016840   -0.969937    0.000000
    103          1           0        2.848314   -2.994069    0.000000
    104          1           0        1.169122   -3.963620    0.000000
    105          1           0       -1.169122   -3.963620    0.000000
    106          1           0       -2.848314   -2.994069    0.000000
    107          1           0       -4.016840   -0.969937    0.000000
    108          1           0       -4.016840    0.969937    0.000000
 ---------------------------------------------------------------------
 Rotational constants (GHZ):           0.0220499           0.0220492           0.0110248
 Standard basis: 6-311++G(d,p) (5D, 7F)
 There are   720 symmetry adapted cartesian basis functions of AG  symmetry.
 There are   234 symmetry adapted cartesian basis functions of BG  symmetry.
 There are   234 symmetry adapted cartesian basis functions of AU  symmetry.
 There are   720 symmetry adapted cartesian basis functions of BU  symmetry.
 There are   684 symmetry adapted basis functions of AG  symmetry.
 There are   234 symmetry adapted basis functions of BG  symmetry.
 There are   234 symmetry adapted basis functions of AU  symmetry.
 There are   684 symmetry adapted basis functions of BU  symmetry.
  1836 basis functions,  2916 primitive gaussians,  1908 cartesian basis functions
   234 alpha electrons      234 beta electrons
       nuclear repulsion energy      9002.5303722553 Hartrees.
 NAtoms=  108 NActive=  108 NUniq=   54 SFac= 4.00D+00 NAtFMM=   60 NAOKFM=T Big=F
 Integral buffers will be    131072 words long.
 Raffenetti 2 integral format.
 Two-electron integral symmetry is turned on.
 Nuclear repulsion after empirical dispersion term =     9002.4348153760 Hartrees.
 One-electron integrals computed using PRISM.
 PrsmSu:  requested number of processors reduced to:  10 ShMem   1 Linda.
 PrsmSu:  requested number of processors reduced to:  21 ShMem   1 Linda.
 NBasis=  1836 RedAO= T EigKep=  1.11D-06  NBF=   684   234   234   684
 NBsUse=  1763 1.00D-06 EigRej=  9.60D-07 NBFU=   648   234   234   647
 ExpMin= 3.60D-02 ExpMax= 4.56D+03 ExpMxC= 6.82D+02 IAcc=3 IRadAn=         5 AccDes= 0.00D+00
 Harris functional with IExCor= 4639 and IRadAn=       5 diagonalized for initial guess.
 HarFok:  IExCor= 4639 AccDes= 0.00D+00 IRadAn=         5 IDoV= 1 UseB2=F ITyADJ=14
 ICtDFT=  3500011 ScaDFX=  1.000000  1.000000  1.000000  1.000000
 CalDSu:  requested number of processors reduced to:  22 ShMem   1 Linda.
 FoFCou: FMM=F IPFlag=           0 FMFlag=      100000 FMFlg1=        2000
         NFxFlg=           0 DoJE=T BraDBF=F KetDBF=T FulRan=T
         wScrn=  0.000000 ICntrl=       500 IOpCl=  0 I1Cent=   200000004 NGrid=           0
         NMat0=    1 NMatS0=      1 NMatT0=    0 NMatD0=    1 NMtDS0=    0 NMtDT0=    0
 Petite list used in FoFCou.
 CoulSu:  requested number of processors reduced to:  20 ShMem   1 Linda.
 CoulSu:  requested number of processors reduced to:  20 ShMem   1 Linda.
 Initial guess orbital symmetries:
       Occupied  (AG) (BU) (BU) (AG) (AG) (BU) (BU) (AG) (AG) (BU)
                 (BU) (AG) (BU) (AG) (AG) (BU) (BU) (AG) (AG) (AG)
                 (BU) (AG) (BU) (BU) (AG) (BU) (BU) (AG) (BU) (AG)
                 (AG) (BU) (AG) (BU) (BU) (AG) (BU) (AG) (AG) (BU)
                 (BU) (AG) (AG) (BU) (AG) (BU) (BU) (AG) (AG) (BU)
                 (BU) (AG) (AG) (BU) (BU) (AG) (AG) (BU) (BU) (AG)
                 (BU) (AG) (AG) (BU) (BU) (AG) (AG) (BU) (BU) (AG)
                 (AG) (BU) (AG) (BU) (BU) (AG) (AG) (BU) (BU) (AG)
                 (AG) (BU) (BU) (AG) (AG) (BU) (BU) (AG) (AG) (BU)
                 (AG) (BU) (BU) (BU) (AG) (AG) (AG) (AG) (BU) (BU)
                 (AG) (BU) (BU) (AG) (AG) (AG) (BU) (BU) (AG) (AG)
                 (BU) (BU) (BU) (AG) (BU) (AG) (AG) (BU) (BU) (AG)
                 (AG) (BU) (BU) (AG) (AG) (BU) (BU) (BU) (AG) (AG)
                 (AG) (BU) (AG) (AG) (AG) (BU) (BU) (BU) (BU) (AG)
                 (AG) (BU) (BU) (AG) (AG) (BU) (AG) (BU) (BU) (BU)
                 (AG) (AG) (AG) (AG) (BU) (BU) (AG) (AG) (AG) (BU)
                 (BU) (BU) (AG) (BU) (BU) (BU) (AG) (AG) (AU) (AG)
[...]
 Alpha virt. eigenvalues --    1.87743   1.88017   1.89464   1.89481   1.90597
 Alpha virt. eigenvalues --    1.90598   1.91049   1.91050   1.91875   1.91878
 Alpha virt. eigenvalues --    1.92130   1.92140   1.92159   1.92161   1.92525
 Alpha virt. eigenvalues --    1.92751   1.92900   1.92904   1.92912   1.92916
 Alpha virt. eigenvalues --    1.92948   1.93590   1.93695   1.95438   1.95460
 Alpha virt. eigenvalues --    1.95532   1.95534   1.96428   1.96703   1.97446
 Alpha virt. eigenvalues --    1.97607   1.97610   1.97617   1.97684   1.97685
 Alpha virt. eigenvalues --    1.98220   1.98229   1.98413   1.98414   1.98897
 Alpha virt. eigenvalues --    1.98902   1.99863   1.99930   1.99937   2.00041
 Alpha virt. eigenvalues --    2.00044   2.00131   2.00175   2.00298   2.00298
 Alpha virt. eigenvalues --    2.01348   2.01600   2.01602   2.01667   2.01672
 Alpha virt. eigenvalues --    2.02707   2.03212   2.03217   2.03884   2.03885
 Alpha virt. eigenvalues --    2.04860   2.05201   2.05202   2.06087   2.06087
 Alpha virt. eigenvalues --    2.06613   2.06617   2.06622   2.07843   2.08005
 Alpha virt. eigenvalues --    2.08451   2.08603   2.08604   2.08711   2.08711
 Alpha virt. eigenvalues --    2.08726   2.08734   2.09103   2.09105   2.09906
 Alpha virt. eigenvalues --    2.09909   2.10775   2.10914   2.10918   2.10957
 Alpha virt. eigenvalues --    2.11382   2.11385   2.11443   2.11861   2.11960
 Alpha virt. eigenvalues --    2.12027   2.12736   2.13571   2.13877   2.13911
 Alpha virt. eigenvalues --    2.14634   2.14712   2.14716   2.15628   2.16037
 Alpha virt. eigenvalues --    2.16037   2.16665   2.16902   2.16903   2.17350
 Alpha virt. eigenvalues --    2.17351   2.17444   2.17446   2.18588   2.18701
 Alpha virt. eigenvalues --    2.19104   2.19105   2.19193   2.19201   2.21350
 Alpha virt. eigenvalues --    2.21362   2.21778   2.22037   2.22038   2.22513
 Alpha virt. eigenvalues --    2.24547   2.24550   2.24984   2.24992   2.25388
 Alpha virt. eigenvalues --    2.25388   2.25460   2.25921   2.26518   2.26698
 Alpha virt. eigenvalues --    2.26700   2.26914   2.27076   2.27800   2.27811
 Alpha virt. eigenvalues --    2.27833   2.27836   2.29083   2.30158   2.30162
 Alpha virt. eigenvalues --    2.31930   2.31934   2.32299   2.32623   2.33080
 Alpha virt. eigenvalues --    2.33080   2.33935   2.35032   2.35032   2.35409
 Alpha virt. eigenvalues --    2.35410   2.35457   2.35588   2.35590   2.35838
 Alpha virt. eigenvalues --    2.35841   2.36206   2.36208   2.36564   2.36810
 Alpha virt. eigenvalues --    2.36812   2.37738   2.37744   2.38186   2.39105
 Alpha virt. eigenvalues --    2.39106   2.39135   2.39455   2.41302   2.42040
 Alpha virt. eigenvalues --    2.42225   2.43021   2.43676   2.43679   2.44166
 Alpha virt. eigenvalues --    2.44168   2.44874   2.45344   2.45417   2.45539
 Alpha virt. eigenvalues --    2.45542   2.45710   2.45716   2.45932   2.50113
 Alpha virt. eigenvalues --    2.50120   2.50369   2.50370   2.50886   2.50891
 Alpha virt. eigenvalues --    2.51651   2.51651   2.51666   2.52087   2.55920
 Alpha virt. eigenvalues --    2.55926   2.56228   2.56834   2.57028   2.57029
 Alpha virt. eigenvalues --    2.57046   2.57049   2.57610   2.57610   2.57631
 Alpha virt. eigenvalues --    2.59602   2.62292   2.63150   2.63215   2.63226
 Alpha virt. eigenvalues --    2.63260   2.63262   2.65144   2.65984   2.65992
 Alpha virt. eigenvalues --    2.67636   2.67650   2.68339   2.69185   2.69430
 Alpha virt. eigenvalues --    2.69432   2.69630   2.71947   2.71951   2.71954
 Alpha virt. eigenvalues --    2.71956   2.72686   2.72696   2.73199   2.73270
 Alpha virt. eigenvalues --    2.73338   2.73338   2.73807   2.73807   2.73895
 Alpha virt. eigenvalues --    2.74439   2.75511   2.75581   2.76296   2.76309
 Alpha virt. eigenvalues --    2.76835   2.76835   2.77372   2.78129   2.78416
 Alpha virt. eigenvalues --    2.78431   2.78909   2.78918   2.79147   2.79147
 Alpha virt. eigenvalues --    2.80454   2.80456   2.80852   2.81001   2.81017
 Alpha virt. eigenvalues --    2.81207   2.81749   2.82354   2.83433   2.83434
 Alpha virt. eigenvalues --    2.83657   2.83664   2.83968   2.84442   2.84906
 Alpha virt. eigenvalues --    2.84906   2.84999   2.85035   2.85038   2.85469
 Alpha virt. eigenvalues --    2.85469   2.85481   2.85521   2.87272   2.87913
 Alpha virt. eigenvalues --    2.87927   2.88324   2.88325   2.88459   2.88567
 Alpha virt. eigenvalues --    2.88567   2.88973   2.89196   2.89197   2.89218
 Alpha virt. eigenvalues --    2.89222   2.89347   2.90378   2.90509   2.90730
 Alpha virt. eigenvalues --    2.90737   2.90738   2.90739   2.90822   2.90867
 Alpha virt. eigenvalues --    2.90868   2.91715   2.91716   2.91881   2.92426
 Alpha virt. eigenvalues --    2.92584   2.92597   2.92726   2.92727   2.92939
 Alpha virt. eigenvalues --    2.92948   2.93098   2.94051   2.94055   2.94259
 Alpha virt. eigenvalues --    2.94260   2.94529   2.94529   2.95316   2.96556
 Alpha virt. eigenvalues --    2.97073   2.97074   2.97589   2.97590   2.98075
 Alpha virt. eigenvalues --    2.98076   2.98137   2.98779   2.99293   2.99785
 Alpha virt. eigenvalues --    2.99786   3.00666   3.00667   3.01060   3.01860
 Alpha virt. eigenvalues --    3.03117   3.03117   3.03638   3.04100   3.04119
 Alpha virt. eigenvalues --    3.04275   3.04276   3.04592   3.04910   3.04912
 Alpha virt. eigenvalues --    3.05357   3.05560   3.07407   3.07507   3.07510
 Alpha virt. eigenvalues --    3.07956   3.07958   3.09061   3.09067   3.09316
 Alpha virt. eigenvalues --    3.09796   3.09797   3.11348   3.11350   3.11961
 Alpha virt. eigenvalues --    3.12441   3.15248   3.15284   3.15317   3.15599
 Alpha virt. eigenvalues --    3.15601   3.16047   3.16281   3.16316   3.16795
 Alpha virt. eigenvalues --    3.17012   3.17012   3.18709   3.18901   3.20429
 Alpha virt. eigenvalues --    3.20430   3.20545   3.20898   3.20898   3.22117
 Alpha virt. eigenvalues --    3.22120   3.22340   3.22989   3.22990   3.23887
 Alpha virt. eigenvalues --    3.26451   3.26655   3.26666   3.27948   3.27999
 Alpha virt. eigenvalues --    3.28005   3.30470   3.30472   3.30474   3.30511
 Alpha virt. eigenvalues --    3.30512   3.34268   3.34866   3.35493   3.35493
 Alpha virt. eigenvalues --    3.35573   3.35574   3.35669   3.37412   3.37413
 Alpha virt. eigenvalues --    3.37423   3.37857   3.37859   3.38945   3.39938
 Alpha virt. eigenvalues --    3.44300   3.44305   3.46318   3.46321   3.46920
 Alpha virt. eigenvalues --    3.48047   3.48327   3.48876   3.48878   3.49150
 Alpha virt. eigenvalues --    3.49151   3.49579   3.50261   3.50265   3.50329
 Alpha virt. eigenvalues --    3.50514   3.50515   3.51818   3.51820   3.52278
 Alpha virt. eigenvalues --    3.52281   3.52480   3.53512   3.55213   3.55995
 Alpha virt. eigenvalues --    3.55997   3.56142   3.57844   3.57849   3.61091
 Alpha virt. eigenvalues --    3.61095   3.61949   3.61950   3.62376   3.62812
 Alpha virt. eigenvalues --    3.63306   3.64130   3.64133   3.65925   3.66533
 Alpha virt. eigenvalues --    3.66535   3.66859   3.66862   3.68301   3.68810
 Alpha virt. eigenvalues --    3.68812   3.72754   3.73177   3.73524   3.73705
 Alpha virt. eigenvalues --    3.73708   3.74688   3.74688   3.75758   3.76860
 Alpha virt. eigenvalues --    3.78454   3.78455   3.78475   3.78475   3.81166
 Alpha virt. eigenvalues --    3.81858   3.81858   3.83138   3.83142   3.83232
 Alpha virt. eigenvalues --    3.83300   3.84306   3.84310   3.84475   3.85192
 Alpha virt. eigenvalues --    3.85194   3.88671   3.88674   3.90191   3.91162
 Alpha virt. eigenvalues --    3.91169   3.92677   3.94501   3.94911   3.95519
 Alpha virt. eigenvalues --    3.95520   3.95938   3.95939   4.18291   4.18443
 Alpha virt. eigenvalues --    4.18446   4.19252   4.19255   4.20251   4.28095
 Alpha virt. eigenvalues --    4.30110   4.30422   4.30426   4.30820   4.30821
 Alpha virt. eigenvalues --    4.32502   4.32502   4.33270   4.33274   4.33845
 Alpha virt. eigenvalues --    4.35096   4.35403   4.38196   4.38199   4.38710
 Alpha virt. eigenvalues --    4.38715   4.39507   4.42828   4.42832   4.43488
 Alpha virt. eigenvalues --    4.48212   4.48217   4.52464   4.62534   4.69322
 Alpha virt. eigenvalues --    4.69328   4.86941   4.86944   4.89312   4.89567
 Alpha virt. eigenvalues --    4.89568   4.89769   4.91289   4.91291   4.94195
 Alpha virt. eigenvalues --    4.94467   4.95719   4.95725   4.95800   4.95802
 Alpha virt. eigenvalues --    4.98244   4.99523   4.99526   4.99683   5.00393
 Alpha virt. eigenvalues --    5.00399   5.07857  23.53925  23.61403  23.61407
 Alpha virt. eigenvalues --   23.73165  23.73170  23.83020  23.83583  23.91427
 Alpha virt. eigenvalues --   23.91429  23.95166  23.95169  23.95640  24.00641
 Alpha virt. eigenvalues --   24.00863  24.00866  24.01448  24.01449  24.01481
 Alpha virt. eigenvalues --   24.02446  24.02447  24.03254  24.03266  24.03266
 Alpha virt. eigenvalues --   24.03431  24.05882  24.06707  24.06709  24.08064
 Alpha virt. eigenvalues --   24.08073  24.09010  24.13519  24.14064  24.14065
 Alpha virt. eigenvalues --   24.14582  24.14582  24.14594  24.15770  24.16130
 Alpha virt. eigenvalues --   24.16133  24.16448  24.16451  24.16741  24.24372
 Alpha virt. eigenvalues --   24.24485  24.24485  24.24672  24.24675  24.24819
 Alpha virt. eigenvalues --   24.24877  24.25259  24.25263  24.26105  24.26106
 Alpha virt. eigenvalues --   24.26859  24.30466  24.30544  24.30630  24.30632
 Alpha virt. eigenvalues --   24.30693  24.30714  24.30718  24.30798  24.30800
 Alpha virt. eigenvalues --   24.30847  24.30865  24.30867  24.37518  24.37520
 Alpha virt. eigenvalues --   24.37602  24.37699  24.37737  24.37739
          Condensed to atoms (all electrons):
 Mulliken charges:
               1
     1  C   -0.242655
     2  C    0.252094
     3  C    0.251396
     4  C   -0.282098
     5  C    0.099380
     6  C    0.149261
     7  C   -0.282003
     8  C    0.251266
     9  C    0.252266
    10  C   -0.242623
    11  C    0.250817
    12  C    0.252327
    13  C   -0.344992
    14  C   -0.345097
    15  C   -0.282352
    16  C    0.099771
    17  C    0.149467
    18  C   -0.242750
    19  C   -0.282352
    20  C    0.250817
    21  C    0.252327
    22  C   -0.242750
    23  C   -0.345251
    24  C   -0.345251
    25  C    0.252094
    26  C    0.251396
    27  C   -0.242655
    28  C    0.149261
    29  C    0.099380
    30  C   -0.282098
    31  C   -0.242623
    32  C    0.252266
    33  C    0.251266
    34  C   -0.282003
    35  C   -0.345097
    36  C   -0.344992
    37  C    0.252327
    38  C    0.250817
    39  C   -0.242750
    40  C    0.149467
    41  C    0.099771
    42  C   -0.282352
    43  C   -0.242750
    44  C    0.252327
    45  C    0.250817
    46  C   -0.282352
    47  C   -0.344992
    48  C   -0.345097
    49  C    0.252266
    50  C    0.251266
    51  C   -0.242623
    52  C    0.149261
    53  C    0.099380
    54  C   -0.282003
    55  C   -0.242655
    56  C    0.252094
    57  C    0.251396
    58  C   -0.282098
    59  C   -0.345251
    60  C   -0.345251
    61  C    0.252094
    62  C    0.251396
    63  C   -0.242655
    64  C    0.149261
    65  C    0.099380
    66  C   -0.282098
    67  C   -0.242623
    68  C    0.252266
    69  C    0.251266
    70  C   -0.282003
    71  C   -0.345097
    72  C   -0.344992
    73  H    0.185627
    74  H    0.185641
    75  H    0.141651
    76  H    0.141651
    77  H    0.185641
    78  H    0.185627
    79  H    0.141705
    80  H    0.141612
    81  H    0.185639
    82  H    0.185639
    83  H    0.141612
    84  H    0.141705
    85  H    0.185627
    86  H    0.185641
    87  H    0.141651
    88  H    0.141651
    89  H    0.185641
    90  H    0.185627
    91  H    0.141705
    92  H    0.141612
    93  H    0.185639
    94  H    0.185639
    95  H    0.141612
    96  H    0.141705
    97  H   -0.085459
    98  H   -0.085114
    99  H   -0.085114
   100  H   -0.085459
   101  H   -0.084905
   102  H   -0.084905
   103  H   -0.085459
   104  H   -0.085114
   105  H   -0.085114
   106  H   -0.085459
   107  H   -0.084905
   108  H   -0.084905
 Sum of Mulliken charges =  -0.00000
 Mulliken charges with hydrogens summed into heavy atoms:
               1
     1  C   -0.101043
     2  C    0.252094
     3  C    0.251396
     4  C   -0.367003
     5  C    0.099380
     6  C    0.149261
     7  C   -0.367462
     8  C    0.251266
     9  C    0.252266
    10  C   -0.100919
    11  C    0.250817
    12  C    0.252327
    13  C   -0.159350
    14  C   -0.159470
    15  C   -0.367466
    16  C    0.099771
    17  C    0.149467
    18  C   -0.101100
    19  C   -0.367466
    20  C    0.250817
    21  C    0.252327
    22  C   -0.101100
    23  C   -0.159612
    24  C   -0.159612
    25  C    0.252094
    26  C    0.251396
    27  C   -0.101043
    28  C    0.149261
    29  C    0.099380
    30  C   -0.367003
    31  C   -0.100919
    32  C    0.252266
    33  C    0.251266
    34  C   -0.367462
    35  C   -0.159470
    36  C   -0.159350
    37  C    0.252327
    38  C    0.250817
    39  C   -0.101100
    40  C    0.149467
    41  C    0.099771
    42  C   -0.367466
    43  C   -0.101100
    44  C    0.252327
    45  C    0.250817
    46  C   -0.367466
    47  C   -0.159350
    48  C   -0.159470
    49  C    0.252266
    50  C    0.251266
    51  C   -0.100919
    52  C    0.149261
    53  C    0.099380
    54  C   -0.367462
    55  C   -0.101043
    56  C    0.252094
    57  C    0.251396
    58  C   -0.367003
    59  C   -0.159612
    60  C   -0.159612
    61  C    0.252094
    62  C    0.251396
    63  C   -0.101043
    64  C    0.149261
    65  C    0.099380
    66  C   -0.367003
    67  C   -0.100919
    68  C    0.252266
    69  C    0.251266
    70  C   -0.367462
    71  C   -0.159470
    72  C   -0.159350
 Electronic spatial extent (au):  <R**2>=          86446.8896
 Charge=             -0.0000 electrons
 Dipole moment (field-independent basis, Debye):
    X=              0.0000    Y=             -0.0000    Z=              0.0000  Tot=              0.0000
 Quadrupole moment (field-independent basis, Debye-Ang):
   XX=           -349.5533   YY=           -349.5481   ZZ=           -436.6975
   XY=             -0.0000   XZ=              0.0000   YZ=              0.0000
 Traceless Quadrupole moment (field-independent basis, Debye-Ang):
   XX=             29.0463   YY=             29.0515   ZZ=            -58.0979
   XY=             -0.0000   XZ=              0.0000   YZ=              0.0000
 Octapole moment (field-independent basis, Debye-Ang**2):
  XXX=              0.0000  YYY=             -0.0000  ZZZ=              0.0000  XYY=             -0.0000
  XXY=             -0.0000  XXZ=              0.0000  XZZ=             -0.0000  YZZ=              0.0000
  YYZ=              0.0000  XYZ=              0.0000
 Hexadecapole moment (field-independent basis, Debye-Ang**3):
 XXXX=         -54090.1304 YYYY=         -54100.1583 ZZZZ=           -503.2839 XXXY=             -0.0001
 XXXZ=              0.0000 YYYX=             -0.0000 YYYZ=              0.0000 ZZZX=              0.0000
 ZZZY=              0.0000 XXYY=         -18031.3546 XXZZ=         -11373.2277 YYZZ=         -11375.4114
 XXYZ=              0.0000 YYXZ=              0.0000 ZZXY=             -0.0000
 N-N= 9.018999060585D+03 E-N=-2.445321838423D+04  KE= 2.753660802033D+03
 Symmetry AG   KE= 1.338286686123D+03
 Symmetry BG   KE= 3.854311400781D+01
 Symmetry AU   KE= 3.854323867389D+01
 Symmetry BU   KE= 1.338287763228D+03
 1\1\GINC-BC11654\FOpt\RwB97XD\6-311++G(d,p)\C72H36\HPHAM196\06-Sep-202
 2\0\\# opt wb97xd/6-311++g(d,p) geom=connectivity\\sixmember-4.cdx\\0,
 1\C,-7.3947780278,2.8260475103,0.\C,-7.3852285245,1.4430270596,0.\C,-6
 .1384338432,0.734866773,0.\C,-4.9728687463,1.461866375,0.\C,-4.9662938
 75,2.8677428685,0.\C,-6.1980128003,3.5787317125,0.\C,-3.7522288847,3.5
 766687099,0.\C,-3.7058672273,4.9495544609,0.\C,-4.9425605209,5.6750378
 665,0.\C,-6.1449460004,4.9915428726,0.\C,-2.4331329704,5.6844274455,0.
 \C,-2.4431998383,7.1181840004,0.\C,-3.7255288489,7.7983882189,0.\C,-4.
 8905778282,7.1256624515,0.\C,-1.2209550717,5.0382097886,0.\C,0.0000000
 516,5.7351620671,0.\C,0.0000000529,7.1573646112,0.\C,-1.2501103984,7.8
 177268617,0.\C,1.2209551587,5.0382097683,0.\C,2.4331330677,5.684427412
 1,0.\C,2.4431999413,7.1181839636,0.\C,1.2501104982,7.817726843,0.\C,-8
 .6154579038,0.6726606632,0.\C,-8.615457923,-0.6726605598,0.\C,-7.38522
 85568,-1.4430269592,0.\C,-6.1384338646,-0.7348666889,0.\C,-7.394778069
 9,-2.8260474159,0.\C,-6.1980128685,-3.5787316448,0.\C,-4.9662939337,-2
 .8677428105,0.\C,-4.972868784,-1.4618663191,0.\C,-6.1449460867,-4.9915
 428056,0.\C,-4.942560614,-5.6750378108,0.\C,-3.7058673133,-4.949554416
 ,0.\C,-3.7522289511,-3.5766686661,0.\C,-4.8905779313,-7.1256623957,0.\
 C,-3.7255289556,-7.7983881713,0.\C,-2.4431999413,-7.1181839636,0.\C,-2
 .4331330677,-5.6844274121,0.\C,-1.2501104982,-7.817726843,0.\C,-0.0000
 000529,-7.1573646112,0.\C,-0.0000000516,-5.7351620671,0.\C,-1.22095515
 87,-5.0382097683,0.\C,1.2501103984,-7.8177268617,0.\C,2.4431998383,-7.
 1181840004,0.\C,2.4331329704,-5.6844274455,0.\C,1.2209550717,-5.038209
 7886,0.\C,3.7255288489,-7.7983882189,0.\C,4.8905778282,-7.1256624515,0
 .\C,4.9425605209,-5.6750378665,0.\C,3.7058672273,-4.9495544609,0.\C,6.
 1449460004,-4.9915428726,0.\C,6.1980128003,-3.5787317125,0.\C,4.966293
 875,-2.8677428685,0.\C,3.7522288847,-3.5766687099,0.\C,7.3947780278,-2
 .8260475103,0.\C,7.3852285245,-1.4430270596,0.\C,6.1384338432,-0.73486
 6773,0.\C,4.9728687463,-1.461866375,0.\C,8.6154579038,-0.6726606632,0.
 \C,8.615457923,0.6726605598,0.\C,7.3852285568,1.4430269592,0.\C,6.1384
 338646,0.7348666889,0.\C,7.3947780699,2.8260474159,0.\C,6.1980128685,3
 .5787316448,0.\C,4.9662939337,2.8677428105,0.\C,4.972868784,1.46186631
 91,0.\C,6.1449460867,4.9915428056,0.\C,4.942560614,5.6750378108,0.\C,3
 .7058673133,4.949554416,0.\C,3.7522289511,3.5766686661,0.\C,4.89057793
 13,7.1256623957,0.\C,3.7255289556,7.7983881713,0.\H,-5.8313736021,7.66
 65871963,0.\H,-3.7236543174,8.8835974448,0.\H,-1.2725148224,8.90367138
 74,0.\H,1.2725150184,8.9036713674,0.\H,3.7236544388,8.8835973982,0.\H,
 5.8313737087,7.6665871342,0.\H,7.0742035177,5.5539153685,0.\H,8.346544
 7301,3.3494286303,0.\H,9.5543027184,1.2169636728,0.\H,9.5543026567,-1.
 2169638452,0.\H,8.346544664,-3.3494287794,0.\H,7.0742034221,-5.5539154
 519,0.\H,5.8313736021,-7.6665871963,0.\H,3.7236543174,-8.8835974448,0.
 \H,1.2725148224,-8.9036713874,0.\H,-1.2725150184,-8.9036713674,0.\H,-3
 .7236544388,-8.8835973982,0.\H,-5.8313737087,-7.6665871342,0.\H,-7.074
 2035177,-5.5539153685,0.\H,-8.3465447301,-3.3494286303,0.\H,-9.5543027
 184,-1.2169636728,0.\H,-9.5543026567,1.2169638452,0.\H,-8.346544664,3.
 3494287794,0.\H,-7.0742034221,5.5539154519,0.\H,-2.8419792144,2.990175
 2959,0.\H,-1.1684088626,3.956630893,0.\H,1.1684089292,3.9566308732,0.\
 H,2.8419792702,2.9901752666,0.\H,4.0095866963,0.9673546774,0.\H,4.0095
 866683,-0.967354714,0.\H,2.8419792144,-2.9901752959,0.\H,1.1684088626,
 -3.956630893,0.\H,-1.1684089292,-3.9566308732,0.\H,-2.8419792702,-2.99
 01752666,0.\H,-4.0095866963,-0.9673546774,0.\H,-4.0095866683,0.9673547
 14,0.\\Version=ES64L-G16RevA.03\State=1-AG\HF=-2765.1766872\RMSD=3.864
 e-09\RMSF=3.305e-05\Dipole=0.,0.,0.\Quadrupole=21.5952402,21.5991125,-
 43.1943528,-0.0000002,0.,0.\PG=C02H [SGH(C72H36)]\\@


 When I told the people of Northern Ireland that I was
 an atheist, a woman in the audience stood up and said,
 "Yes, but is it the God of the Catholics or the God
 of the Protestants in whom you don't believe?"
                               -- Quentin Crisp
 Job cpu time:       1 days  9 hours 17 minutes 25.3 seconds.
 Elapsed time:       0 days  1 hours 29 minutes 21.8 seconds.
 File lengths (MBytes):  RWF=   1994 Int=      0 D2E=      0 Chk=    238 Scr=      1
 Normal termination of Gaussian 16 at Tue Sep  6 01:02:09 2022.
