 Entering Gaussian System, Link 0=g16
 Initial command:
 /project/6004141/group/g16/g16/l1.exe "/scratch/hpham196/GaussianScratch/Gau-173873.inp" -scrdir="/scratch/hpham196/GaussianScratch/"
 Entering Link 1 = /project/6004141/group/g16/g16/l1.exe PID=    173874.
  
 Copyright (c) 1988,1990,1992,1993,1995,1998,2003,2009,2016,
            Gaussian, Inc.  All Rights Reserved.
  
 This is part of the Gaussian(R) 16 program.  It is based on
 the Gaussian(R) 09 system (copyright 2009, Gaussian, Inc.),
 the Gaussian(R) 03 system (copyright 2003, Gaussian, Inc.),
 the Gaussian(R) 98 system (copyright 1998, Gaussian, Inc.),
 the Gaussian(R) 94 system (copyright 1995, Gaussian, Inc.),
 the Gaussian 92(TM) system (copyright 1992, Gaussian, Inc.),
 the Gaussian 90(TM) system (copyright 1990, Gaussian, Inc.),
 the Gaussian 88(TM) system (copyright 1988, Gaussian, Inc.),
 the Gaussian 86(TM) system (copyright 1986, Carnegie Mellon
 University), and the Gaussian 82(TM) system (copyright 1983,
 Carnegie Mellon University). Gaussian is a federally registered
 trademark of Gaussian, Inc.
  
 This software contains proprietary and confidential information,
 including trade secrets, belonging to Gaussian, Inc.
  
 This software is provided under written license and may be
 used, copied, transmitted, or stored only in accord with that
 written license.
  
 The following legend is applicable only to US Government
 contracts under FAR:
  
                    RESTRICTED RIGHTS LEGEND
  
 Use, reproduction and disclosure by the US Government is
 subject to restrictions as set forth in subparagraphs (a)
 and (c) of the Commercial Computer Software - Restricted
 Rights clause in FAR 52.227-19.
  
 Gaussian, Inc.
 340 Quinnipiac St., Bldg. 40, Wallingford CT 06492
  
  
 ---------------------------------------------------------------
 Warning -- This program may not be used in any manner that
 competes with the business of Gaussian, Inc. or will provide
 assistance to any competitor of Gaussian, Inc.  The licensee
 of this program is prohibited from giving any competitor of
 Gaussian, Inc. access to this program.  By using this program,
 the user acknowledges that Gaussian, Inc. is engaged in the
 business of creating and licensing software in the field of
 computational chemistry and represents and warrants to the
 licensee that it is not a competitor of Gaussian, Inc. and that
 it will not use this program in any manner prohibited above.
 ---------------------------------------------------------------
  

 Cite this work as:
 Gaussian 16, Revision A.03,
 M. J. Frisch, G. W. Trucks, H. B. Schlegel, G. E. Scuseria, 
 M. A. Robb, J. R. Cheeseman, G. Scalmani, V. Barone, 
 G. A. Petersson, H. Nakatsuji, X. Li, M. Caricato, A. V. Marenich, 
 J. Bloino, B. G. Janesko, R. Gomperts, B. Mennucci, H. P. Hratchian, 
 J. V. Ortiz, A. F. Izmaylov, J. L. Sonnenberg, D. Williams-Young, 
 F. Ding, F. Lipparini, F. Egidi, J. Goings, B. Peng, A. Petrone, 
 T. Henderson, D. Ranasinghe, V. G. Zakrzewski, J. Gao, N. Rega, 
 G. Zheng, W. Liang, M. Hada, M. Ehara, K. Toyota, R. Fukuda, 
 J. Hasegawa, M. Ishida, T. Nakajima, Y. Honda, O. Kitao, H. Nakai, 
 T. Vreven, K. Throssell, J. A. Montgomery, Jr., J. E. Peralta, 
 F. Ogliaro, M. J. Bearpark, J. J. Heyd, E. N. Brothers, K. N. Kudin, 
 V. N. Staroverov, T. A. Keith, R. Kobayashi, J. Normand, 
 K. Raghavachari, A. P. Rendell, J. C. Burant, S. S. Iyengar, 
 J. Tomasi, M. Cossi, J. M. Millam, M. Klene, C. Adamo, R. Cammi, 
 J. W. Ochterski, R. L. Martin, K. Morokuma, O. Farkas, 
 J. B. Foresman, and D. J. Fox, Gaussian, Inc., Wallingford CT, 2016.
 
 ******************************************
 Gaussian 16:  ES64L-G16RevA.03 25-Dec-2016
                 1-Sep-2022 
 ******************************************
 %NProcShared=40
 Will use up to   40 processors via shared memory.
 %chk=indacene_IRC_3.chk
 -------------------------------------------------
 # opt freq wb97xd/6-311++g(d,p) geom=connectivity
 -------------------------------------------------
 1/18=20,19=15,26=3,38=1,57=2/1,3;
 2/9=110,12=2,17=6,18=5,40=1/2;
 3/5=4,6=6,7=1111,11=2,25=1,30=1,71=1,74=-58/1,2,3;
 4//1;
 5/5=2,38=5/2;
 6/7=2,8=2,9=2,10=2,28=1/1;
 7//1,2,3,16;
 1/18=20,19=15,26=3/3(2);
 2/9=110/2;
 99//99;
 2/9=110/2;
 3/5=4,6=6,7=1111,11=2,25=1,30=1,71=1,74=-58/1,2,3;
 4/5=5,16=3,69=1/1;
 5/5=2,38=5/2;
 7//1,2,3,16;
 1/18=20,19=15,26=3/3(-5);
 2/9=110/2;
 6/7=2,8=2,9=2,10=2,19=2,28=1/1;
 99/9=1/99;
 -------------
 iindacene.cdx
 -------------
 Symbolic Z-matrix:
 Charge =  0 Multiplicity = 1
 C                     1.20014  -0.69987   0. 
 C                     1.19551   0.71092   0. 
 C                     0.00609   1.38919   0. 
 C                    -1.21344   0.67982   0. 
 C                    -1.20618  -0.68937   0. 
 C                     0.01798  -1.3907    0. 
 C                    -2.27685  -1.6765    0. 
 C                    -1.72138  -2.93457   0. 
 C                    -0.27609  -2.81758   0. 
 C                    -0.31351   2.80999   0. 
 C                    -1.68074   2.95802   0. 
 C                    -2.30213   1.64786   0. 
 C                     2.59039  -1.1335    0. 
 C                     3.40215  -0.02344   0. 
 C                     2.57826   1.1697    0. 
 C                    -3.61853   1.30103   0. 
 C                    -4.18908  -0.02147   0. 
 C                    -3.6537   -1.27757   0. 
 C                     2.936     2.48318   0. 
 C                     2.07588   3.63849   0. 
 C                     0.72038   3.80291  0. 
 C                     0.6825   -3.78418  0. 
 C                     2.11307  -3.61701  0. 
 C                     2.93329  -2.52537   0. 
 H                     3.99817  -2.74119  -0.00002 
 H                     2.64217  -4.56627  -0.00002 
 H                     0.34737  -4.8184   -0.00002 
 H                    -2.28312  -3.85877  -0.00001 
 H                    -4.37298  -2.09195  -0.00001 
 H                    -5.2757   -0.00502  0. 
 H                    -4.34653   2.10845  -0.00001 
 H                    -2.20025   3.9066    0.00003 
 H                     0.37477   4.83302  -0.00002 
 H                     2.63343   4.57132   0.00002 
 H                     3.99922   2.71005   0.00001 
 H                     4.48339  -0.04811  -0.00001 
 

 GradGradGradGradGradGradGradGradGradGradGradGradGradGradGradGradGradGrad
 Berny optimization.
 Initialization pass.
                           ----------------------------
                           !    Initial Parameters    !
                           ! (Angstroms and Degrees)  !
 --------------------------                            --------------------------
 ! Name  Definition              Value          Derivative Info.                !
 --------------------------------------------------------------------------------
 ! R1    R(1,2)                  1.4108         estimate D2E/DX2                !
 ! R2    R(1,6)                  1.3692         estimate D2E/DX2                !
 ! R3    R(1,13)                 1.4563         estimate D2E/DX2                !
 ! R4    R(2,3)                  1.3692         estimate D2E/DX2                !
 ! R5    R(2,15)                 1.4569         estimate D2E/DX2                !
 ! R6    R(3,4)                  1.4108         estimate D2E/DX2                !
 ! R7    R(3,10)                 1.4563         estimate D2E/DX2                !
 ! R8    R(4,5)                  1.3692         estimate D2E/DX2                !
 ! R9    R(4,12)                 1.4568         estimate D2E/DX2                !
 ! R10   R(5,6)                  1.4108         estimate D2E/DX2                !
 ! R11   R(5,7)                  1.4563         estimate D2E/DX2                !
 ! R12   R(6,9)                  1.4569         estimate D2E/DX2                !
 ! R13   R(7,8)                  1.3752         estimate D2E/DX2                !
 ! R14   R(7,18)                 1.4335         estimate D2E/DX2                !
 ! R15   R(8,9)                  1.45           estimate D2E/DX2                !
 ! R16   R(8,28)                 1.0815         estimate D2E/DX2                !
 ! R17   R(9,22)                 1.3613         estimate D2E/DX2                !
 ! R18   R(10,11)                1.3752         estimate D2E/DX2                !
 ! R19   R(10,21)                1.4335         estimate D2E/DX2                !
 ! R20   R(11,12)                1.4501         estimate D2E/DX2                !
 ! R21   R(11,32)                1.0815         estimate D2E/DX2                !
 ! R22   R(12,16)                1.3613         estimate D2E/DX2                !
 ! R23   R(13,14)                1.3752         estimate D2E/DX2                !
 ! R24   R(13,24)                1.4335         estimate D2E/DX2                !
 ! R25   R(14,15)                1.45           estimate D2E/DX2                !
 ! R26   R(14,36)                1.0815         estimate D2E/DX2                !
 ! R27   R(15,19)                1.3613         estimate D2E/DX2                !
 ! R28   R(16,17)                1.4403         estimate D2E/DX2                !
 ! R29   R(16,31)                1.0872         estimate D2E/DX2                !
 ! R30   R(17,18)                1.3654         estimate D2E/DX2                !
 ! R31   R(17,30)                1.0867         estimate D2E/DX2                !
 ! R32   R(18,29)                1.0865         estimate D2E/DX2                !
 ! R33   R(19,20)                1.4403         estimate D2E/DX2                !
 ! R34   R(19,35)                1.0872         estimate D2E/DX2                !
 ! R35   R(20,21)                1.3654         estimate D2E/DX2                !
 ! R36   R(20,34)                1.0868         estimate D2E/DX2                !
 ! R37   R(21,33)                1.0865         estimate D2E/DX2                !
 ! R38   R(22,23)                1.4403         estimate D2E/DX2                !
 ! R39   R(22,27)                1.0872         estimate D2E/DX2                !
 ! R40   R(23,24)                1.3654         estimate D2E/DX2                !
 ! R41   R(23,26)                1.0868         estimate D2E/DX2                !
 ! R42   R(24,25)                1.0865         estimate D2E/DX2                !
 ! A1    A(2,1,6)              120.1135         estimate D2E/DX2                !
 ! A2    A(2,1,13)             107.5109         estimate D2E/DX2                !
 ! A3    A(6,1,13)             132.3756         estimate D2E/DX2                !
 ! A4    A(1,2,3)              119.8815         estimate D2E/DX2                !
 ! A5    A(1,2,15)             108.1673         estimate D2E/DX2                !
 ! A6    A(3,2,15)             131.9512         estimate D2E/DX2                !
 ! A7    A(2,3,4)              120.1208         estimate D2E/DX2                !
 ! A8    A(2,3,10)             132.3708         estimate D2E/DX2                !
 ! A9    A(4,3,10)             107.5085         estimate D2E/DX2                !
 ! A10   A(3,4,5)              119.8816         estimate D2E/DX2                !
 ! A11   A(3,4,12)             108.1718         estimate D2E/DX2                !
 ! A12   A(5,4,12)             131.9466         estimate D2E/DX2                !
 ! A13   A(4,5,6)              120.1125         estimate D2E/DX2                !
 ! A14   A(4,5,7)              132.3712         estimate D2E/DX2                !
 ! A15   A(6,5,7)              107.5163         estimate D2E/DX2                !
 ! A16   A(1,6,5)              119.8902         estimate D2E/DX2                !
 ! A17   A(1,6,9)              131.9464         estimate D2E/DX2                !
 ! A18   A(5,6,9)              108.1634         estimate D2E/DX2                !
 ! A19   A(5,7,8)              108.8526         estimate D2E/DX2                !
 ! A20   A(5,7,18)             121.1667         estimate D2E/DX2                !
 ! A21   A(8,7,18)             129.9806         estimate D2E/DX2                !
 ! A22   A(7,8,9)              109.1949         estimate D2E/DX2                !
 ! A23   A(7,8,28)             124.8862         estimate D2E/DX2                !
 ! A24   A(9,8,28)             125.9189         estimate D2E/DX2                !
 ! A25   A(6,9,8)              106.2727         estimate D2E/DX2                !
 ! A26   A(6,9,22)             123.5933         estimate D2E/DX2                !
 ! A27   A(8,9,22)             130.134          estimate D2E/DX2                !
 ! A28   A(3,10,11)            108.8563         estimate D2E/DX2                !
 ! A29   A(3,10,21)            121.1651         estimate D2E/DX2                !
 ! A30   A(11,10,21)           129.9786         estimate D2E/DX2                !
 ! A31   A(10,11,12)           109.195          estimate D2E/DX2                !
 ! A32   A(10,11,32)           124.8876         estimate D2E/DX2                !
 ! A33   A(12,11,32)           125.9174         estimate D2E/DX2                !
 ! A34   A(4,12,11)            106.2684         estimate D2E/DX2                !
 ! A35   A(4,12,16)            123.597          estimate D2E/DX2                !
 ! A36   A(11,12,16)           130.1346         estimate D2E/DX2                !
 ! A37   A(1,13,14)            108.8538         estimate D2E/DX2                !
 ! A38   A(1,13,24)            121.1628         estimate D2E/DX2                !
 ! A39   A(14,13,24)           129.9834         estimate D2E/DX2                !
 ! A40   A(13,14,15)           109.1969         estimate D2E/DX2                !
 ! A41   A(13,14,36)           124.8697         estimate D2E/DX2                !
 ! A42   A(15,14,36)           125.9335         estimate D2E/DX2                !
 ! A43   A(2,15,14)            106.2711         estimate D2E/DX2                !
 ! A44   A(2,15,19)            123.5904         estimate D2E/DX2                !
 ! A45   A(14,15,19)           130.1385         estimate D2E/DX2                !
 ! A46   A(12,16,17)           128.0969         estimate D2E/DX2                !
 ! A47   A(12,16,31)           117.2789         estimate D2E/DX2                !
 ! A48   A(17,16,31)           114.6242         estimate D2E/DX2                !
 ! A49   A(16,17,18)           133.5785         estimate D2E/DX2                !
 ! A50   A(16,17,30)           112.4696         estimate D2E/DX2                !
 ! A51   A(18,17,30)           113.9519         estimate D2E/DX2                !
 ! A52   A(7,18,17)            129.2431         estimate D2E/DX2                !
 ! A53   A(7,18,29)            115.2936         estimate D2E/DX2                !
 ! A54   A(17,18,29)           115.4633         estimate D2E/DX2                !
 ! A55   A(15,19,20)           128.0974         estimate D2E/DX2                !
 ! A56   A(15,19,35)           117.2804         estimate D2E/DX2                !
 ! A57   A(20,19,35)           114.6222         estimate D2E/DX2                !
 ! A58   A(19,20,21)           133.5837         estimate D2E/DX2                !
 ! A59   A(19,20,34)           112.4661         estimate D2E/DX2                !
 ! A60   A(21,20,34)           113.9503         estimate D2E/DX2                !
 ! A61   A(10,21,20)           129.2415         estimate D2E/DX2                !
 ! A62   A(10,21,33)           115.2948         estimate D2E/DX2                !
 ! A63   A(20,21,33)           115.4637         estimate D2E/DX2                !
 ! A64   A(9,22,23)            128.0965         estimate D2E/DX2                !
 ! A65   A(9,22,27)            117.2842         estimate D2E/DX2                !
 ! A66   A(23,22,27)           114.6193         estimate D2E/DX2                !
 ! A67   A(22,23,24)           133.5849         estimate D2E/DX2                !
 ! A68   A(22,23,26)           112.4695         estimate D2E/DX2                !
 ! A69   A(24,23,26)           113.9456         estimate D2E/DX2                !
 ! A70   A(13,24,23)           129.2404         estimate D2E/DX2                !
 ! A71   A(13,24,25)           115.2967         estimate D2E/DX2                !
 ! A72   A(23,24,25)           115.4629         estimate D2E/DX2                !
 ! D1    D(6,1,2,3)              0.0            estimate D2E/DX2                !
 ! D2    D(6,1,2,15)           180.0            estimate D2E/DX2                !
 ! D3    D(13,1,2,3)           180.0            estimate D2E/DX2                !
 ! D4    D(13,1,2,15)            0.0            estimate D2E/DX2                !
 ! D5    D(2,1,6,5)              0.0            estimate D2E/DX2                !
 ! D6    D(2,1,6,9)            180.0            estimate D2E/DX2                !
 ! D7    D(13,1,6,5)           180.0            estimate D2E/DX2                !
 ! D8    D(13,1,6,9)             0.0            estimate D2E/DX2                !
 ! D9    D(2,1,13,14)            0.0            estimate D2E/DX2                !
 ! D10   D(2,1,13,24)          180.0            estimate D2E/DX2                !
 ! D11   D(6,1,13,14)          180.0            estimate D2E/DX2                !
 ! D12   D(6,1,13,24)            0.0            estimate D2E/DX2                !
 ! D13   D(1,2,3,4)              0.0            estimate D2E/DX2                !
 ! D14   D(1,2,3,10)           180.0            estimate D2E/DX2                !
 ! D15   D(15,2,3,4)           180.0            estimate D2E/DX2                !
 ! D16   D(15,2,3,10)            0.0            estimate D2E/DX2                !
 ! D17   D(1,2,15,14)            0.0            estimate D2E/DX2                !
 ! D18   D(1,2,15,19)          180.0            estimate D2E/DX2                !
 ! D19   D(3,2,15,14)          180.0            estimate D2E/DX2                !
 ! D20   D(3,2,15,19)            0.0            estimate D2E/DX2                !
 ! D21   D(2,3,4,5)              0.0            estimate D2E/DX2                !
 ! D22   D(2,3,4,12)           180.0            estimate D2E/DX2                !
 ! D23   D(10,3,4,5)           180.0            estimate D2E/DX2                !
 ! D24   D(10,3,4,12)            0.0            estimate D2E/DX2                !
 ! D25   D(2,3,10,11)          180.0            estimate D2E/DX2                !
 ! D26   D(2,3,10,21)            0.0            estimate D2E/DX2                !
 ! D27   D(4,3,10,11)            0.0            estimate D2E/DX2                !
 ! D28   D(4,3,10,21)         -180.0            estimate D2E/DX2                !
 ! D29   D(3,4,5,6)              0.0            estimate D2E/DX2                !
 ! D30   D(3,4,5,7)            180.0            estimate D2E/DX2                !
 ! D31   D(12,4,5,6)           180.0            estimate D2E/DX2                !
 ! D32   D(12,4,5,7)             0.0            estimate D2E/DX2                !
 ! D33   D(3,4,12,11)            0.0            estimate D2E/DX2                !
 ! D34   D(3,4,12,16)          180.0            estimate D2E/DX2                !
 ! D35   D(5,4,12,11)          180.0            estimate D2E/DX2                !
 ! D36   D(5,4,12,16)            0.0            estimate D2E/DX2                !
 ! D37   D(4,5,6,1)              0.0            estimate D2E/DX2                !
 ! D38   D(4,5,6,9)            180.0            estimate D2E/DX2                !
 ! D39   D(7,5,6,1)            180.0            estimate D2E/DX2                !
 ! D40   D(7,5,6,9)              0.0            estimate D2E/DX2                !
 ! D41   D(4,5,7,8)            180.0            estimate D2E/DX2                !
 ! D42   D(4,5,7,18)             0.0            estimate D2E/DX2                !
 ! D43   D(6,5,7,8)              0.0            estimate D2E/DX2                !
 ! D44   D(6,5,7,18)           180.0            estimate D2E/DX2                !
 ! D45   D(1,6,9,8)            180.0            estimate D2E/DX2                !
 ! D46   D(1,6,9,22)            -0.0001         estimate D2E/DX2                !
 ! D47   D(5,6,9,8)              0.0            estimate D2E/DX2                !
 ! D48   D(5,6,9,22)           179.9999         estimate D2E/DX2                !
 ! D49   D(5,7,8,9)              0.0            estimate D2E/DX2                !
 ! D50   D(5,7,8,28)          -179.9997         estimate D2E/DX2                !
 ! D51   D(18,7,8,9)           180.0            estimate D2E/DX2                !
 ! D52   D(18,7,8,28)            0.0003         estimate D2E/DX2                !
 ! D53   D(5,7,18,17)            0.0            estimate D2E/DX2                !
 ! D54   D(5,7,18,29)          179.9994         estimate D2E/DX2                !
 ! D55   D(8,7,18,17)          180.0            estimate D2E/DX2                !
 ! D56   D(8,7,18,29)           -0.0006         estimate D2E/DX2                !
 ! D57   D(7,8,9,6)              0.0            estimate D2E/DX2                !
 ! D58   D(7,8,9,22)          -179.9999         estimate D2E/DX2                !
 ! D59   D(28,8,9,6)           179.9997         estimate D2E/DX2                !
 ! D60   D(28,8,9,22)           -0.0003         estimate D2E/DX2                !
 ! D61   D(6,9,22,23)            0.0001         estimate D2E/DX2                !
 ! D62   D(6,9,22,27)         -179.9988         estimate D2E/DX2                !
 ! D63   D(8,9,22,23)          180.0            estimate D2E/DX2                !
 ! D64   D(8,9,22,27)            0.0011         estimate D2E/DX2                !
 ! D65   D(3,10,11,12)           0.0            estimate D2E/DX2                !
 ! D66   D(3,10,11,32)         179.9984         estimate D2E/DX2                !
 ! D67   D(21,10,11,12)        179.9999         estimate D2E/DX2                !
 ! D68   D(21,10,11,32)         -0.0017         estimate D2E/DX2                !
 ! D69   D(3,10,21,20)          -0.0002         estimate D2E/DX2                !
 ! D70   D(3,10,21,33)         179.9987         estimate D2E/DX2                !
 ! D71   D(11,10,21,20)        179.9999         estimate D2E/DX2                !
 ! D72   D(11,10,21,33)         -0.0013         estimate D2E/DX2                !
 ! D73   D(10,11,12,4)           0.0            estimate D2E/DX2                !
 ! D74   D(10,11,12,16)        180.0            estimate D2E/DX2                !
 ! D75   D(32,11,12,4)        -179.9984         estimate D2E/DX2                !
 ! D76   D(32,11,12,16)          0.0016         estimate D2E/DX2                !
 ! D77   D(4,12,16,17)           0.0            estimate D2E/DX2                !
 ! D78   D(4,12,16,31)        -179.9994         estimate D2E/DX2                !
 ! D79   D(11,12,16,17)        180.0            estimate D2E/DX2                !
 ! D80   D(11,12,16,31)          0.0006         estimate D2E/DX2                !
 ! D81   D(1,13,14,15)           0.0            estimate D2E/DX2                !
 ! D82   D(1,13,14,36)        -179.9993         estimate D2E/DX2                !
 ! D83   D(24,13,14,15)        180.0            estimate D2E/DX2                !
 ! D84   D(24,13,14,36)          0.0007         estimate D2E/DX2                !
 ! D85   D(1,13,24,23)           0.0001         estimate D2E/DX2                !
 ! D86   D(1,13,24,25)         179.9991         estimate D2E/DX2                !
 ! D87   D(14,13,24,23)       -179.9999         estimate D2E/DX2                !
 ! D88   D(14,13,24,25)         -0.0009         estimate D2E/DX2                !
 ! D89   D(13,14,15,2)           0.0            estimate D2E/DX2                !
 ! D90   D(13,14,15,19)        180.0            estimate D2E/DX2                !
 ! D91   D(36,14,15,2)         179.9993         estimate D2E/DX2                !
 ! D92   D(36,14,15,19)         -0.0007         estimate D2E/DX2                !
 ! D93   D(2,15,19,20)           0.0001         estimate D2E/DX2                !
 ! D94   D(2,15,19,35)         179.9993         estimate D2E/DX2                !
 ! D95   D(14,15,19,20)       -179.9999         estimate D2E/DX2                !
 ! D96   D(14,15,19,35)         -0.0007         estimate D2E/DX2                !
 ! D97   D(12,16,17,18)          0.0            estimate D2E/DX2                !
 ! D98   D(12,16,17,30)       -179.9999         estimate D2E/DX2                !
 ! D99   D(31,16,17,18)        179.9994         estimate D2E/DX2                !
 ! D100  D(31,16,17,30)         -0.0005         estimate D2E/DX2                !
 ! D101  D(16,17,18,7)           0.0            estimate D2E/DX2                !
 ! D102  D(16,17,18,29)       -179.9994         estimate D2E/DX2                !
 ! D103  D(30,17,18,7)         179.9999         estimate D2E/DX2                !
 ! D104  D(30,17,18,29)          0.0005         estimate D2E/DX2                !
 ! D105  D(15,19,20,21)         -0.0002         estimate D2E/DX2                !
 ! D106  D(15,19,20,34)        179.9987         estimate D2E/DX2                !
 ! D107  D(35,19,20,21)       -179.9994         estimate D2E/DX2                !
 ! D108  D(35,19,20,34)         -0.0005         estimate D2E/DX2                !
 ! D109  D(19,20,21,10)          0.0003         estimate D2E/DX2                !
 ! D110  D(19,20,21,33)       -179.9986         estimate D2E/DX2                !
 ! D111  D(34,20,21,10)       -179.9986         estimate D2E/DX2                !
 ! D112  D(34,20,21,33)          0.0025         estimate D2E/DX2                !
 ! D113  D(9,22,23,24)           0.0            estimate D2E/DX2                !
 ! D114  D(9,22,23,26)        -179.999          estimate D2E/DX2                !
 ! D115  D(27,22,23,24)        179.9989         estimate D2E/DX2                !
 ! D116  D(27,22,23,26)         -0.0001         estimate D2E/DX2                !
 ! D117  D(22,23,24,13)         -0.0001         estimate D2E/DX2                !
 ! D118  D(22,23,24,25)       -179.9991         estimate D2E/DX2                !
 ! D119  D(26,23,24,13)        179.9989         estimate D2E/DX2                !
 ! D120  D(26,23,24,25)         -0.0001         estimate D2E/DX2                !
 --------------------------------------------------------------------------------
 Trust Radius=3.00D-01 FncErr=1.00D-07 GrdErr=1.00D-06 EigMax=2.50D+02 EigMin=1.00D-04
 Number of steps in this run=    216 maximum allowed number of steps=    216.
 GradGradGradGradGradGradGradGradGradGradGradGradGradGradGradGradGradGrad

                          Input orientation:                          
 ---------------------------------------------------------------------
 Center     Atomic      Atomic             Coordinates (Angstroms)
 Number     Number       Type             X           Y           Z
 ---------------------------------------------------------------------
      1          6           0        1.200137   -0.699868    0.000000
      2          6           0        1.195514    0.710924    0.000000
      3          6           0        0.006087    1.389189    0.000000
      4          6           0       -1.213439    0.679821    0.000000
      5          6           0       -1.206176   -0.689373    0.000000
      6          6           0        0.017981   -1.390698    0.000000
      7          6           0       -2.276847   -1.676498    0.000000
      8          6           0       -1.721384   -2.934566    0.000000
      9          6           0       -0.276088   -2.817581    0.000000
     10          6           0       -0.313506    2.809991    0.000000
     11          6           0       -1.680743    2.958020    0.000000
     12          6           0       -2.302133    1.647859    0.000000
     13          6           0        2.590393   -1.133501    0.000000
     14          6           0        3.402153   -0.023435    0.000000
     15          6           0        2.578260    1.169699    0.000000
     16          6           0       -3.618526    1.301028    0.000000
     17          6           0       -4.189084   -0.021467    0.000000
     18          6           0       -3.653701   -1.277574    0.000000
     19          6           0        2.935995    2.483184    0.000000
     20          6           0        2.075883    3.638487    0.000001
     21          6           0        0.720379    3.802913   -0.000001
     22          6           0        0.682499   -3.784181   -0.000001
     23          6           0        2.113069   -3.617013   -0.000001
     24          6           0        2.933291   -2.525370    0.000000
     25          1           0        3.998169   -2.741190   -0.000015
     26          1           0        2.642168   -4.566270   -0.000019
     27          1           0        0.347373   -4.818402   -0.000021
     28          1           0       -2.283115   -3.858766   -0.000005
     29          1           0       -4.372976   -2.091946   -0.000010
     30          1           0       -5.275704   -0.005023   -0.000002
     31          1           0       -4.346531    2.108448   -0.000010
     32          1           0       -2.200254    3.906598    0.000025
     33          1           0        0.374765    4.833015   -0.000024
     34          1           0        2.633431    4.571316    0.000023
     35          1           0        3.999217    2.710054    0.000012
     36          1           0        4.483390   -0.048109   -0.000011
 ---------------------------------------------------------------------
                    Distance matrix (angstroms):
                    1          2          3          4          5
     1  C    0.000000
     2  C    1.410800   0.000000
     3  C    2.406224   1.369226   0.000000
     4  C    2.780088   2.409154   1.410832   0.000000
     5  C    2.406336   2.780098   2.406242   1.369213   0.000000
     6  C    1.369211   2.409024   2.779912   2.409034   1.410821
     7  C    3.611540   4.213914   3.822332   2.585165   1.456280
     8  C    3.678201   4.668821   4.656073   3.649904   2.303547
     9  C    2.581462   3.823083   4.216223   3.620835   2.322570
    10  C    3.822332   2.585193   1.456303   2.312467   3.611427
    11  C    4.656137   3.649972   2.303612   2.325632   3.678137
    12  C    4.216363   3.620964   2.322669   1.456830   2.581429
    13  C    1.456314   2.312486   3.611454   4.213938   3.822458
    14  C    2.303570   2.325627   3.678148   4.668861   4.656197
    15  C    2.322607   1.456867   2.581521   3.823214   4.216409
    16  C    5.217576   4.850073   3.625685   2.484017   3.127480
    17  C    5.431752   5.434178   4.425993   3.057167   3.056769
    18  C    4.888097   5.241089   4.528319   3.128302   2.517213
    19  C    3.625607   2.483985   3.127489   4.524370   5.217538
    20  C    4.425862   3.057070   3.056697   4.424177   5.431600
    21  C    4.528267   3.128282   2.517196   3.673330   4.887970
    22  C    3.127449   4.524285   5.217403   4.849938   3.625594
    23  C    3.056662   4.424132   5.431522   5.434008   4.425886
    24  C    2.517197   3.673346   4.887975   5.241051   4.528363
    25  H    3.463521   4.446568   5.744280   6.234114   5.594208
    26  H    4.126562   5.471890   6.512789   6.510543   5.462608
    27  H    4.205892   5.593996   6.216966   5.715469   4.411620
    28  H    4.702306   5.743076   5.725511   4.662937   3.347365
    29  H    5.744342   6.234113   5.594148   4.203019   3.463500
    30  H    6.513012   6.510702   5.462705   4.119588   4.126669
    31  H    6.217087   5.715535   4.411646   3.443434   4.205904
    32  H    5.725573   4.663000   3.347430   3.374299   4.702248
    33  H    5.594107   4.203006   3.463504   4.446506   5.744227
    34  H    5.462574   4.119494   4.126605   5.471941   6.512867
    35  H    4.411623   3.443439   4.205921   5.594071   6.217091
    36  H    3.347318   3.374353   4.702347   5.743147   5.725590
                    6          7          8          9         10
     6  C    0.000000
     7  C    2.312556   0.000000
     8  C    2.325708   1.375236   0.000000
     9  C    1.456871   2.303282   1.450023   0.000000
    10  C    4.213748   4.897274   5.914563   5.627696   0.000000
    11  C    4.668727   4.672697   5.892726   5.943957   1.375227
    12  C    3.823056   3.324453   4.619079   4.903571   2.303299
    13  C    2.585238   4.897435   4.672821   3.324581   4.897322
    14  C    3.649935   5.914698   5.892819   4.619168   4.672732
    15  C    3.620865   5.627868   5.944067   4.903642   3.324585
    16  C    4.524331   3.265848   4.641056   5.304228   3.633198
    17  C    4.424273   2.528988   3.817812   4.809344   4.799714
    18  C    3.673424   1.433481   2.545481   3.712128   5.278739
    19  C    4.849924   6.669084   7.144452   6.198031   3.265893
    20  C    5.433936   6.869885   7.591065   6.871141   2.528949
    21  C    5.240893   6.245583   7.166298   6.695064   1.433462
    22  C    2.484018   3.633188   2.549608   1.361325   6.668968
    23  C    3.057102   4.799683   3.894710   2.519358   6.869836
    24  C    3.128340   5.278837   4.672627   3.222654   6.245620
    25  H    4.203061   6.364699   5.722821   4.274940   7.028951
    26  H    4.119541   5.705041   4.658653   3.402077   7.946398
    27  H    3.443494   4.093665   2.797962   2.095707   7.656967
    28  H    3.374374   2.182277   1.081521   2.261023   6.953537
    29  H    4.446600   2.136903   2.782256   4.160653   6.364612
    30  H    5.472038   3.433216   4.606019   5.736431   5.705060
    31  H    5.594014   4.313862   5.685366   6.390170   4.093587
    32  H    5.742988   5.583621   6.857904   6.994069   2.182284
    33  H    6.233931   7.028855   8.045443   7.678231   2.136900
    34  H    6.510468   7.946446   8.677712   7.941102   3.433177
    35  H    5.715453   7.657076   8.036604   6.988060   4.313881
    36  H    4.662877   6.953593   6.843307   5.506597   5.583811
                   11         12         13         14         15
    11  C    0.000000
    12  C    1.450051   0.000000
    13  C    5.914655   5.627857   0.000000
    14  C    5.892784   5.944081   1.375209   0.000000
    15  C    4.619221   4.903761   2.303232   1.449955   0.000000
    16  C    2.549632   1.361316   6.669153   7.144518   6.198177
    17  C    3.894755   2.519372   6.870075   7.591237   6.871377
    18  C    4.672560   3.222560   6.245756   7.166445   6.695258
    19  C    4.641092   5.304315   3.633160   2.549596   1.361329
    20  C    3.817758   4.809327   4.799645   3.894697   2.519384
    21  C    2.545433   3.712120   5.278744   4.672564   3.222660
    22  C    7.144382   6.197991   3.265909   4.641091   5.304228
    23  C    7.591052   6.871163   2.528966   3.817793   4.809263
    24  C    7.166371   6.695185   1.433485   2.545488   3.712086
    25  H    8.045560   7.678382   2.136936   2.782342   4.160672
    26  H    8.677701   7.941128   3.433159   4.605966   5.736325
    27  H    8.036541   6.988019   4.313889   5.685366   6.390165
    28  H    6.843349   5.506658   5.583740   6.857991   6.994171
    29  H    5.722786   4.274872   7.029020   8.045581   7.678412
    30  H    4.658687   3.402079   7.946631   8.677877   7.941330
    31  H    2.797892   2.095640   7.657098   8.036606   6.988131
    32  H    1.081523   2.261035   6.953625   6.843400   5.506797
    33  H    2.782215   4.160649   6.364615   5.722778   4.274959
    34  H    4.605955   5.736409   5.704979   4.658612   3.402064
    35  H    5.685370   6.390248   4.093617   2.797936   2.095665
    36  H    6.858086   6.994257   2.182089   1.081518   2.261101
                   16         17         18         19         20
    16  C    0.000000
    17  C    1.440323   0.000000
    18  C    2.578842   1.365445   0.000000
    19  C    6.660273   7.552485   7.587318   0.000000
    20  C    6.155486   7.255693   7.549556   1.440319   0.000000
    21  C    5.008545   6.223239   6.704023   2.578883   1.365440
    22  C    6.660193   6.155513   5.008564   6.660188   7.552319
    23  C    7.552371   7.255693   6.223232   6.155454   7.255595
    24  C    7.587333   7.549686   6.704137   5.008555   6.223205
    25  H    8.622852   8.627167   7.790590   5.331257   6.662992
    26  H    8.580296   8.204952   7.103062   7.055575   8.224276
    27  H    7.292172   6.602274   5.342851   7.746878   8.631727
    28  H    5.329803   4.284575   2.922509   8.213370   8.672351
    29  H    3.475841   2.078629   1.086535   8.622811   8.627030
    30  H    2.109978   1.086744   2.061621   8.580395   8.204937
    31  H    1.087161   2.135726   3.456177   7.292161   6.602153
    32  H    2.966562   4.402856   5.384064   5.329837   4.284534
    33  H    5.331164   6.662936   7.319005   3.475860   2.078629
    34  H    7.055618   8.224376   8.587057   2.109938   1.086752
    35  H    7.746958   8.631887   8.629504   1.087157   2.135697
    36  H    8.213478   8.672515   8.229449   2.966795   4.403076
                   21         22         23         24         25
    21  C    0.000000
    22  C    7.587189   0.000000
    23  C    7.549496   1.440304   0.000000
    24  C    6.704039   2.578889   1.365448   0.000000
    25  H    7.319098   3.475845   2.078622   1.086528   0.000000
    26  H    8.586996   2.109968   1.086754   2.061559   2.273688
    27  H    8.629380   1.087163   2.135654   3.456149   4.200372
    28  H    8.229356   2.966552   4.402826   5.384128   6.379930
    29  H    7.790483   5.331181   6.662928   7.319112   8.396284
    30  H    7.103055   7.055652   8.224381   8.587185   9.669091
    31  H    5.342732   7.746884   8.631763   8.629489   9.651581
    32  H    2.922473   8.213303   8.672340   8.229429   9.089199
    33  H    1.086535   8.622689   8.626974   7.790500   8.396287
    34  H    2.061604   8.580237   8.204847   7.103018   7.438767
    35  H    3.456171   7.292167   6.602222   5.342833   5.451244
    36  H    5.384294   5.329635   4.284332   2.922264   2.736444
                   26         27         28         29         30
    26  H    0.000000
    27  H    2.308604   0.000000
    28  H    4.975839   2.800066   0.000000
    29  H    7.438718   5.451170   2.736635   0.000000
    30  H    9.137706   7.401865   4.879234   2.273800   0.000000
    31  H    9.664045   8.367436   6.313900   4.200477   2.308706
    32  H    9.759024   9.089336   7.765806   6.379910   4.975859
    33  H    9.668902   9.651456   9.089080   8.396197   7.438710
    34  H    9.137590   9.663998   9.759032   9.668961   9.137685
    35  H    7.401788   8.367414   9.089394   9.651571   9.664150
    36  H    4.878922   6.313662   7.765739   9.089141   9.759189
                   31         32         33         34         35
    31  H    0.000000
    32  H    2.799973   0.000000
    33  H    5.451046   2.736598   0.000000
    34  H    7.401729   4.879176   2.273776   0.000000
    35  H    8.367403   6.313886   4.200430   2.308607   0.000000
    36  H    9.089458   7.766003   6.380139   4.976086   2.800337
                   36
    36  H    0.000000
 Stoichiometry    C24H12
 Framework group  C1[X(C24H12)]
 Deg. of freedom   102
 Full point group                 C1      NOp   1
 Largest Abelian subgroup         C1      NOp   1
 Largest concise Abelian subgroup C1      NOp   1
                         Standard orientation:                         
 ---------------------------------------------------------------------
 Center     Atomic      Atomic             Coordinates (Angstroms)
 Number     Number       Type             X           Y           Z
 ---------------------------------------------------------------------
      1          6           0       -1.226289   -0.652960   -0.000000
      2          6           0       -1.167145    0.756599   -0.000000
      3          6           0        0.047607    1.388389   -0.000000
      4          6           0        1.238806    0.632418   -0.000000
      5          6           0        1.178632   -0.735472   -0.000000
      6          6           0       -0.071715   -1.388962   -0.000000
      7          6           0        2.210353   -1.763239   -0.000000
      8          6           0        1.606683   -2.998900   -0.000000
      9          6           0        0.166988   -2.826144   -0.000000
     10          6           0        0.421873    2.795777   -0.000000
     11          6           0        1.793809    2.890855   -0.000000
     12          6           0        2.364100    1.557657   -0.000000
     13          6           0       -2.632265   -1.032538   -0.000000
     14          6           0       -3.400517    0.108072   -0.000000
     15          6           0       -2.531127    1.268472   -0.000000
     16          6           0        3.666105    1.160209   -0.000000
     17          6           0        4.185125   -0.183349   -0.000000
     18          6           0        3.601596   -1.417826   -0.000000
     19          6           0       -2.837831    2.594802   -0.000000
     20          6           0       -1.933711    3.716000   -0.000001
     21          6           0       -0.572865    3.827915    0.000001
     22          6           0       -0.828240   -3.754974    0.000001
     23          6           0       -2.251281   -3.532642    0.000001
     24          6           0       -3.028700   -2.410115   -0.000000
     25          1           0       -4.101124   -2.584618    0.000015
     26          1           0       -2.816672   -4.460741    0.000019
     27          1           0       -0.533336   -4.801375    0.000021
     28          1           0        2.132275   -3.944119    0.000005
     29          1           0        4.288859   -2.259388    0.000010
     30          1           0        5.271568   -0.208913    0.000002
     31          1           0        4.424771    1.938890    0.000010
     32          1           0        2.349593    3.818646   -0.000025
     33          1           0       -0.187698    4.843890    0.000024
     34          1           0       -2.454790    4.669680   -0.000023
     35          1           0       -3.891490    2.862594   -0.000012
     36          1           0       -4.481900    0.125204    0.000011
 ---------------------------------------------------------------------
 Rotational constants (GHZ):           0.3237512           0.3237363           0.1618719
 Standard basis: 6-311++G(d,p) (5D, 7F)
 There are   636 symmetry adapted cartesian basis functions of A   symmetry.
 There are   612 symmetry adapted basis functions of A   symmetry.
   612 basis functions,   972 primitive gaussians,   636 cartesian basis functions
    78 alpha electrons       78 beta electrons
       nuclear repulsion energy      1816.6236461454 Hartrees.
 NAtoms=   36 NActive=   36 NUniq=   36 SFac= 1.00D+00 NAtFMM=   60 NAOKFM=F Big=F
 Integral buffers will be    131072 words long.
 Raffenetti 2 integral format.
 Two-electron integral symmetry is turned on.
 Nuclear repulsion after empirical dispersion term =     1816.5940304332 Hartrees.
 One-electron integrals computed using PRISM.
 PrsmSu:  requested number of processors reduced to:  24 ShMem   1 Linda.
 NBasis=   612 RedAO= T EigKep=  2.45D-06  NBF=   612
 NBsUse=   590 1.00D-06 EigRej=  9.01D-07 NBFU=   590
 ExpMin= 3.60D-02 ExpMax= 4.56D+03 ExpMxC= 6.82D+02 IAcc=3 IRadAn=         5 AccDes= 0.00D+00
 Harris functional with IExCor= 4639 and IRadAn=       5 diagonalized for initial guess.
 HarFok:  IExCor= 4639 AccDes= 0.00D+00 IRadAn=         5 IDoV= 1 UseB2=F ITyADJ=14
 ICtDFT=  3500011 ScaDFX=  1.000000  1.000000  1.000000  1.000000
 FoFCou: FMM=F IPFlag=           0 FMFlag=      100000 FMFlg1=           0
         NFxFlg=           0 DoJE=T BraDBF=F KetDBF=T FulRan=T
         wScrn=  0.000000 ICntrl=       500 IOpCl=  0 I1Cent=   200000004 NGrid=           0
         NMat0=    1 NMatS0=      1 NMatT0=    0 NMatD0=    1 NMtDS0=    0 NMtDT0=    0
 Petite list used in FoFCou.
 Requested convergence on RMS density matrix=1.00D-08 within 128 cycles.
 Requested convergence on MAX density matrix=1.00D-06.
 Requested convergence on             energy=1.00D-06.
 No special actions if energy rises.
 SCF Done:  E(RwB97XD) =  -921.590338609     A.U. after   18 cycles
            NFock= 18  Conv=0.55D-08     -V/T= 2.0040

 **********************************************************************

            Population analysis using the SCF density.

 **********************************************************************

 Orbital symmetries:
       Occupied  (A) (A) (A) (A) (A) (A) (A) (A) (A) (A) (A) (A)
                 (A) (A) (A) (A) (A) (A) (A) (A) (A) (A) (A) (A)
                 (A) (A) (A) (A) (A) (A) (A) (A) (A) (A) (A) (A)
                 (A) (A) (A) (A) (A) (A) (A) (A) (A) (A) (A) (A)
                 (A) (A) (A) (A) (A) (A) (A) (A) (A) (A) (A) (A)
                 (A) (A) (A) (A) (A) (A) (A) (A) (A) (A) (A) (A)
                 (A) (A) (A) (A) (A) (A)
       Virtual   (A) (A) (A) (A) (A) (A) (A) (A) (A) (A) (A) (A)
                 (A) (A) (A) (A) (A) (A) (A) (A) (A) (A) (A) (A)
                 (A) (A) (A) (A) (A) (A) (A) (A) (A) (A) (A) (A)
                 (A) (A) (A) (A) (A) (A) (A) (A) (A) (A) (A) (A)
                 (A) (A) (A) (A) (A) (A) (A) (A) (A) (A) (A) (A)
                 (A) (A) (A) (A) (A) (A) (A) (A) (A) (A) (A) (A)
                 (A) (A) (A) (A) (A) (A) (A) (A) (A) (A) (A) (A)
                 (A) (A) (A) (A) (A) (A) (A) (A) (A) (A) (A) (A)
                 (A) (A) (A) (A) (A) (A) (A) (A) (A) (A) (A) (A)
                 (A) (A) (A) (A) (A) (A) (A) (A) (A) (A) (A) (A)
                 (A) (A) (A) (A) (A) (A) (A) (A) (A) (A) (A) (A)
                 (A) (A) (A) (A) (A) (A) (A) (A) (A) (A) (A) (A)
                 (A) (A) (A) (A) (A) (A) (A) (A) (A) (A) (A) (A)
                 (A) (A) (A) (A) (A) (A) (A) (A) (A) (A) (A) (A)
                 (A) (A) (A) (A) (A) (A) (A) (A) (A) (A) (A) (A)
                 (A) (A) (A) (A) (A) (A) (A) (A) (A) (A) (A) (A)
                 (A) (A) (A) (A) (A) (A) (A) (A) (A) (A) (A) (A)
                 (A) (A) (A) (A) (A) (A) (A) (A) (A) (A) (A) (A)
                 (A) (A) (A) (A) (A) (A) (A) (A) (A) (A) (A) (A)
                 (A) (A) (A) (A) (A) (A) (A) (A) (A) (A) (A) (A)
                 (A) (A) (A) (A) (A) (A) (A) (A) (A) (A) (A) (A)
                 (A) (A) (A) (A) (A) (A) (A) (A) (A) (A) (A) (A)
                 (A) (A) (A) (A) (A) (A) (A) (A) (A) (A) (A) (A)
                 (A) (A) (A) (A) (A) (A) (A) (A) (A) (A) (A) (A)
                 (A) (A) (A) (A) (A) (A) (A) (A) (A) (A) (A) (A)
                 (A) (A) (A) (A) (A) (A) (A) (A) (A) (A) (A) (A)
                 (A) (A) (A) (A) (A) (A) (A) (A) (A) (A) (A) (A)
                 (A) (A) (A) (A) (A) (A) (A) (A) (A) (A) (A) (A)
                 (A) (A) (A) (A) (A) (A) (A) (A) (A) (A) (A) (A)
                 (A) (A) (A) (A) (A) (A) (A) (A) (A) (A) (A) (A)
                 (A) (A) (A) (A) (A) (A) (A) (A) (A) (A) (A) (A)
                 (A) (A) (A) (A) (A) (A) (A) (A) (A) (A) (A) (A)
                 (A) (A) (A) (A) (A) (A) (A) (A) (A) (A) (A) (A)
                 (A) (A) (A) (A) (A) (A) (A) (A) (A) (A) (A) (A)
                 (A) (A) (A) (A) (A) (A) (A) (A) (A) (A) (A) (A)
                 (A) (A) (A) (A) (A) (A) (A) (A) (A) (A) (A) (A)
                 (A) (A) (A) (A) (A) (A) (A) (A) (A) (A) (A) (A)
                 (A) (A) (A) (A) (A) (A) (A) (A) (A) (A) (A) (A)
                 (A) (A) (A) (A) (A) (A) (A) (A) (A) (A) (A) (A)
                 (A) (A) (A) (A) (A) (A) (A) (A) (A) (A) (A) (A)
                 (A) (A) (A) (A) (A) (A) (A) (A) (A) (A) (A) (A)
                 (A) (A) (A) (A) (A) (A) (A) (A) (A) (A) (A) (A)
                 (A) (A) (A) (A) (A) (A) (A) (A)
 The electronic state is 1-A.
 Alpha  occ. eigenvalues --  -10.31019 -10.31019 -10.31019 -10.30978 -10.30978
 Alpha  occ. eigenvalues --  -10.30978 -10.30894 -10.30894 -10.30894 -10.30846
 Alpha  occ. eigenvalues --  -10.30846 -10.30846 -10.30699 -10.30698 -10.30698
 Alpha  occ. eigenvalues --  -10.29770 -10.29762 -10.29762 -10.29493 -10.29492
 Alpha  occ. eigenvalues --  -10.29483 -10.28149 -10.28148 -10.28148  -1.02381
 Alpha  occ. eigenvalues --   -0.98370  -0.98369  -0.92875  -0.92875  -0.92233
 Alpha  occ. eigenvalues --   -0.87349  -0.87185  -0.85844  -0.85843  -0.79862
 Alpha  occ. eigenvalues --   -0.79861  -0.77809  -0.77809  -0.70936  -0.70670
 Alpha  occ. eigenvalues --   -0.69473  -0.69472  -0.67919  -0.63077  -0.63077
 Alpha  occ. eigenvalues --   -0.60938  -0.60937  -0.59420  -0.57371  -0.56694
 Alpha  occ. eigenvalues --   -0.56694  -0.53368  -0.52812  -0.52811  -0.52752
 Alpha  occ. eigenvalues --   -0.50613  -0.50613  -0.50561  -0.47844  -0.47843
 Alpha  occ. eigenvalues --   -0.47500  -0.46306  -0.46296  -0.46295  -0.44814
 Alpha  occ. eigenvalues --   -0.44693  -0.44692  -0.42226  -0.42226  -0.41809
 Alpha  occ. eigenvalues --   -0.40483  -0.40482  -0.35593  -0.33637  -0.33636
 Alpha  occ. eigenvalues --   -0.33460  -0.24522  -0.24522
 Alpha virt. eigenvalues --   -0.05161  -0.05161   0.03390   0.03824   0.04186
 Alpha virt. eigenvalues --    0.04186   0.05294   0.05294   0.05516   0.05516
 Alpha virt. eigenvalues --    0.05834   0.06638   0.06695   0.08418   0.08418
 Alpha virt. eigenvalues --    0.09843   0.10309   0.10902   0.10902   0.11224
 Alpha virt. eigenvalues --    0.11225   0.12647   0.12648   0.13003   0.13674
 Alpha virt. eigenvalues --    0.13674   0.14545   0.14930   0.14930   0.15233
 Alpha virt. eigenvalues --    0.16017   0.16017   0.16036   0.16571   0.16668
 Alpha virt. eigenvalues --    0.16828   0.16828   0.17725   0.17829   0.17841
 Alpha virt. eigenvalues --    0.17841   0.18287   0.18287   0.18347   0.18676
 Alpha virt. eigenvalues --    0.18676   0.20252   0.20252   0.21497   0.21497
 Alpha virt. eigenvalues --    0.21617   0.21680   0.23033   0.23033   0.23044
 Alpha virt. eigenvalues --    0.23044   0.23174   0.23351   0.23351   0.24126
 Alpha virt. eigenvalues --    0.24221   0.24221   0.24724   0.25368   0.25369
 Alpha virt. eigenvalues --    0.26449   0.26449   0.26454   0.26491   0.26724
 Alpha virt. eigenvalues --    0.26725   0.26967   0.26967   0.27860   0.27860
 Alpha virt. eigenvalues --    0.28200   0.28219   0.28977   0.28977   0.30461
 Alpha virt. eigenvalues --    0.31525   0.31825   0.31826   0.31828   0.32432
 Alpha virt. eigenvalues --    0.32902   0.32903   0.33672   0.33673   0.33854
 Alpha virt. eigenvalues --    0.33854   0.34271   0.34272   0.35191   0.35508
 Alpha virt. eigenvalues --    0.36115   0.36115   0.36190   0.36242   0.36654
 Alpha virt. eigenvalues --    0.37895   0.37895   0.38420   0.38471   0.38471
 Alpha virt. eigenvalues --    0.39358   0.39400   0.39400   0.39833   0.39834
 Alpha virt. eigenvalues --    0.40540   0.41293   0.41293   0.42421   0.42931
 Alpha virt. eigenvalues --    0.42932   0.43123   0.45208   0.45208   0.45568
 Alpha virt. eigenvalues --    0.46113   0.46114   0.47437   0.47438   0.47517
 Alpha virt. eigenvalues --    0.49866   0.51668   0.51668   0.53156   0.54134
 Alpha virt. eigenvalues --    0.54135   0.56870   0.56870   0.56885   0.58875
 Alpha virt. eigenvalues --    0.60280   0.60371   0.60371   0.60460   0.60461
 Alpha virt. eigenvalues --    0.61763   0.61764   0.63142   0.63875   0.63875
 Alpha virt. eigenvalues --    0.64552   0.64669   0.65298   0.66840   0.67006
 Alpha virt. eigenvalues --    0.67007   0.67661   0.67662   0.68338   0.69006
 Alpha virt. eigenvalues --    0.69007   0.69653   0.69654   0.69846   0.69977
 Alpha virt. eigenvalues --    0.69977   0.70884   0.71821   0.71822   0.72171
 Alpha virt. eigenvalues --    0.72171   0.72520   0.72521   0.73596   0.74641
 Alpha virt. eigenvalues --    0.76056   0.77082   0.77082   0.77107   0.78745
 Alpha virt. eigenvalues --    0.79840   0.79841   0.79959   0.81158   0.81158
 Alpha virt. eigenvalues --    0.82117   0.82493   0.82494   0.82864   0.82864
 Alpha virt. eigenvalues --    0.83997   0.83998   0.84844   0.86013   0.86013
 Alpha virt. eigenvalues --    0.86258   0.88389   0.88647   0.88648   0.89721
 Alpha virt. eigenvalues --    0.91783   0.91783   0.92760   0.92761   0.93319
 Alpha virt. eigenvalues --    0.94232   0.95529   0.95530   0.95878   0.97035
 Alpha virt. eigenvalues --    0.97036   0.99127   1.00213   1.00214   1.00411
 Alpha virt. eigenvalues --    1.01222   1.01223   1.01421   1.02146   1.04522
 Alpha virt. eigenvalues --    1.05345   1.05450   1.05450   1.06607   1.06607
 Alpha virt. eigenvalues --    1.07951   1.07951   1.08081   1.08082   1.08635
 Alpha virt. eigenvalues --    1.09111   1.09312   1.09312   1.09850   1.09851
 Alpha virt. eigenvalues --    1.10013   1.11284   1.12292   1.12292   1.13573
 Alpha virt. eigenvalues --    1.13573   1.13853   1.17227   1.17227   1.18289
 Alpha virt. eigenvalues --    1.18879   1.19997   1.19997   1.20405   1.20405
 Alpha virt. eigenvalues --    1.20541   1.20968   1.22805   1.22807   1.23661
 Alpha virt. eigenvalues --    1.23662   1.27073   1.27205   1.27205   1.30082
 Alpha virt. eigenvalues --    1.34222   1.34223   1.34273   1.35723   1.35725
 Alpha virt. eigenvalues --    1.37786   1.40143   1.41511   1.41511   1.50915
 Alpha virt. eigenvalues --    1.51870   1.51871   1.54209   1.54209   1.54726
 Alpha virt. eigenvalues --    1.55678   1.56724   1.56726   1.57263   1.57265
 Alpha virt. eigenvalues --    1.60722   1.62618   1.62619   1.62858   1.62966
 Alpha virt. eigenvalues --    1.62967   1.64363   1.64675   1.64678   1.65207
 Alpha virt. eigenvalues --    1.69232   1.69232   1.69398   1.69400   1.69761
 Alpha virt. eigenvalues --    1.72252   1.73103   1.73103   1.74772   1.74774
 Alpha virt. eigenvalues --    1.75141   1.77403   1.79126   1.79126   1.80148
 Alpha virt. eigenvalues --    1.81195   1.81197   1.82454   1.83970   1.83971
 Alpha virt. eigenvalues --    1.85135   1.85138   1.85284   1.87690   1.87918
 Alpha virt. eigenvalues --    1.87922   1.88266   1.89646   1.90924   1.90927
 Alpha virt. eigenvalues --    1.91564   1.93317   1.93319   1.94860   1.94861
 Alpha virt. eigenvalues --    1.95007   1.98138   1.99008   1.99009   2.00979
 Alpha virt. eigenvalues --    2.00980   2.01257   2.01257   2.03892   2.03894
 Alpha virt. eigenvalues --    2.04207   2.05017   2.06333   2.09476   2.09477
 Alpha virt. eigenvalues --    2.10954   2.10954   2.11197   2.11978   2.11979
 Alpha virt. eigenvalues --    2.12765   2.12766   2.17840   2.17843   2.18931
 Alpha virt. eigenvalues --    2.19189   2.20806   2.20807   2.23042   2.23752
 Alpha virt. eigenvalues --    2.24278   2.24280   2.25713   2.25714   2.26123
 Alpha virt. eigenvalues --    2.31328   2.31330   2.34465   2.34741   2.34742
 Alpha virt. eigenvalues --    2.35760   2.36886   2.36888   2.37867   2.45068
 Alpha virt. eigenvalues --    2.45069   2.48364   2.49928   2.50491   2.50499
 Alpha virt. eigenvalues --    2.54155   2.54155   2.54408   2.56549   2.57953
 Alpha virt. eigenvalues --    2.57955   2.59451   2.59451   2.65795   2.67495
 Alpha virt. eigenvalues --    2.67496   2.68359   2.72378   2.73073   2.74212
 Alpha virt. eigenvalues --    2.74215   2.74478   2.74829   2.74829   2.76120
 Alpha virt. eigenvalues --    2.76121   2.78128   2.80642   2.80643   2.82025
 Alpha virt. eigenvalues --    2.82025   2.82173   2.84161   2.84162   2.84824
 Alpha virt. eigenvalues --    2.84987   2.84988   2.85249   2.87860   2.88347
 Alpha virt. eigenvalues --    2.88485   2.88487   2.91635   2.91637   2.91709
 Alpha virt. eigenvalues --    2.94076   2.94079   2.94129   2.94129   2.94591
 Alpha virt. eigenvalues --    2.98668   2.98668   2.99176   3.02241   3.02242
 Alpha virt. eigenvalues --    3.06313   3.07573   3.10170   3.10170   3.10505
 Alpha virt. eigenvalues --    3.11070   3.11073   3.15045   3.15045   3.15183
 Alpha virt. eigenvalues --    3.16584   3.16584   3.19669   3.19670   3.20816
 Alpha virt. eigenvalues --    3.27010   3.29195   3.29301   3.29302   3.33338
 Alpha virt. eigenvalues --    3.36283   3.37624   3.37624   3.38371   3.43056
 Alpha virt. eigenvalues --    3.44883   3.44886   3.47408   3.47410   3.52130
 Alpha virt. eigenvalues --    3.52132   3.53787   3.55864   3.59140   3.59141
 Alpha virt. eigenvalues --    3.61834   3.63581   3.63583   3.66376   3.66826
 Alpha virt. eigenvalues --    3.66828   3.75001   3.75002   3.77779   3.83390
 Alpha virt. eigenvalues --    3.83392   3.90680   4.00658   4.00660   4.05381
 Alpha virt. eigenvalues --    4.10532   4.10532   4.13535   4.19975   4.19976
 Alpha virt. eigenvalues --    4.20110   4.36912   4.41002   4.41003   4.53529
 Alpha virt. eigenvalues --    4.53533   4.81052   4.81053   4.83764   4.94561
 Alpha virt. eigenvalues --    4.94563   4.95342   5.10177  23.50360  23.81410
 Alpha virt. eigenvalues --   23.81412  23.89931  23.93795  23.93799  24.00117
 Alpha virt. eigenvalues --   24.02901  24.03951  24.03955  24.08632  24.08634
 Alpha virt. eigenvalues --   24.25909  24.27044  24.27045  24.28945  24.29292
 Alpha virt. eigenvalues --   24.29295  24.31362  24.31363  24.34216  24.36012
 Alpha virt. eigenvalues --   24.36013  24.36780
          Condensed to atoms (all electrons):
               1          2          3          4          5          6
     1  C    5.783981   0.014672   0.131356  -0.133387   0.131218   0.032552
     2  C    0.014672   5.807899   0.032661   0.127207  -0.133425   0.127220
     3  C    0.131356   0.032661   5.783164   0.015140   0.131218  -0.133392
     4  C   -0.133387   0.127207   0.015140   5.807872   0.032401   0.127150
     5  C    0.131218  -0.133425   0.131218   0.032401   5.783863   0.015042
     6  C    0.032552   0.127220  -0.133392   0.127150   0.015042   5.807918
     7  C   -0.112100   0.005281   0.056341   0.115776   0.219256  -0.018254
     8  C   -0.001465  -0.019267  -0.029987   0.029220  -0.209635  -0.202685
     9  C    0.124449   0.063973  -0.001852  -0.094416  -0.072416   0.119024
    10  C    0.056440   0.115722   0.219353  -0.018409  -0.112072   0.005214
    11  C   -0.029997   0.029162  -0.209517  -0.202590  -0.001510  -0.019270
    12  C   -0.001839  -0.094483  -0.072090   0.119066   0.124411   0.063955
    13  C    0.219399  -0.018581  -0.112063   0.005188   0.056467   0.115765
    14  C   -0.209684  -0.202515  -0.001549  -0.019237  -0.029904   0.029055
    15  C   -0.072461   0.119306   0.124457   0.063914  -0.001856  -0.094461
    16  C    0.025500  -0.075534   0.062239  -0.071775   0.118841  -0.084868
    17  C    0.005191   0.019036  -0.082337   0.162670   0.188425  -0.121129
    18  C   -0.078224   0.021449  -0.070189   0.127720  -0.078102   0.082867
    19  C    0.062146  -0.071754   0.118809  -0.084932   0.025419  -0.075562
    20  C   -0.082186   0.162666   0.188316  -0.121115   0.005117   0.019029
    21  C   -0.070139   0.127796  -0.078037   0.082903  -0.078161   0.021456
    22  C    0.118886  -0.084875   0.025487  -0.075568   0.062293  -0.071679
    23  C    0.188356  -0.121123   0.005295   0.018953  -0.082212   0.162685
    24  C   -0.078119   0.082736  -0.078181   0.021394  -0.070204   0.127740
    25  H    0.009668   0.006812  -0.003363   0.000200   0.002122  -0.005744
    26  H   -0.003693  -0.001503  -0.000339   0.000586  -0.002818  -0.000310
    27  H   -0.004643   0.002379   0.000976  -0.004345   0.005970   0.009239
    28  H    0.001437  -0.000956  -0.000776   0.002821   0.016070   0.021942
    29  H   -0.003360   0.000200   0.002123  -0.005757   0.009658   0.006824
    30  H   -0.000341   0.000588  -0.002817  -0.000319  -0.003685  -0.001506
    31  H    0.000977  -0.004340   0.005967   0.009256  -0.004677   0.002392
    32  H   -0.000777   0.002833   0.016066   0.021927   0.001437  -0.000956
    33  H    0.002113  -0.005729   0.009658   0.006814  -0.003359   0.000204
    34  H   -0.002815  -0.000317  -0.003688  -0.001507  -0.000342   0.000587
    35  H    0.005960   0.009258  -0.004662   0.002383   0.000978  -0.004344
    36  H    0.016054   0.021947   0.001442  -0.000949  -0.000776   0.002831
               7          8          9         10         11         12
     1  C   -0.112100  -0.001465   0.124449   0.056440  -0.029997  -0.001839
     2  C    0.005281  -0.019267   0.063973   0.115722   0.029162  -0.094483
     3  C    0.056341  -0.029987  -0.001852   0.219353  -0.209517  -0.072090
     4  C    0.115776   0.029220  -0.094416  -0.018409  -0.202590   0.119066
     5  C    0.219256  -0.209635  -0.072416  -0.112072  -0.001510   0.124411
     6  C   -0.018254  -0.202685   0.119024   0.005214  -0.019270   0.063955
     7  C    6.672898   0.720930  -1.154671  -0.060113   0.025409   0.185648
     8  C    0.720930   6.256653   0.497367   0.018867  -0.021458   0.011426
     9  C   -1.154671   0.497367   6.717814   0.014553   0.022559  -0.075833
    10  C   -0.060113   0.018867   0.014553   6.672220   0.720746  -1.153779
    11  C    0.025409  -0.021458   0.022559   0.720746   6.256402   0.497542
    12  C    0.185648   0.011426  -0.075833  -1.153779   0.497542   6.716719
    13  C   -0.060090   0.025407   0.185462  -0.060130   0.018869   0.014612
    14  C    0.018795  -0.021422   0.011411   0.025318  -0.021442   0.022507
    15  C    0.014585   0.022577  -0.075719   0.185514   0.011448  -0.075728
    16  C    0.029584  -0.100801  -0.002624  -0.143360  -0.106838   0.369427
    17  C   -0.816028  -0.474344  -0.044634  -0.076702  -0.358747  -0.745698
    18  C    0.343851  -0.109663  -0.141638  -0.026170  -0.064681   0.114263
    19  C   -0.032492   0.003338   0.024526   0.029651  -0.100840  -0.002673
    20  C   -0.024077   0.006453  -0.018538  -0.816056  -0.474536  -0.044876
    21  C    0.024709  -0.003663  -0.033242   0.343783  -0.109670  -0.141661
    22  C   -0.143449  -0.107068   0.369229  -0.032490   0.003342   0.024540
    23  C   -0.076819  -0.358988  -0.745713  -0.024101   0.006456  -0.018500
    24  C   -0.026229  -0.064673   0.114206   0.024707  -0.003668  -0.033227
    25  H   -0.003501  -0.000869   0.006495   0.001280  -0.000059  -0.000415
    26  H    0.005041   0.006031   0.004606  -0.000180   0.000001  -0.000098
    27  H    0.000596   0.041927  -0.009575  -0.000207   0.000029   0.001221
    28  H   -0.028271   0.321174  -0.027552   0.001276   0.000620  -0.000256
    29  H   -0.027924   0.057345   0.000783  -0.003498  -0.000863   0.006518
    30  H    0.000850  -0.000692   0.001631   0.005039   0.006033   0.004597
    31  H    0.012782   0.000779  -0.002782   0.000625   0.041922  -0.009618
    32  H    0.000048   0.000874   0.001073  -0.028235   0.321190  -0.027589
    33  H    0.001279  -0.000059  -0.000415  -0.027940   0.057348   0.000801
    34  H   -0.000180   0.000001  -0.000099   0.000849  -0.000689   0.001631
    35  H   -0.000208   0.000029   0.001221   0.012786   0.000780  -0.002778
    36  H    0.001275   0.000621  -0.000261   0.000043   0.000873   0.001069
              13         14         15         16         17         18
     1  C    0.219399  -0.209684  -0.072461   0.025500   0.005191  -0.078224
     2  C   -0.018581  -0.202515   0.119306  -0.075534   0.019036   0.021449
     3  C   -0.112063  -0.001549   0.124457   0.062239  -0.082337  -0.070189
     4  C    0.005188  -0.019237   0.063914  -0.071775   0.162670   0.127720
     5  C    0.056467  -0.029904  -0.001856   0.118841   0.188425  -0.078102
     6  C    0.115765   0.029055  -0.094461  -0.084868  -0.121129   0.082867
     7  C   -0.060090   0.018795   0.014585   0.029584  -0.816028   0.343851
     8  C    0.025407  -0.021422   0.022577  -0.100801  -0.474344  -0.109663
     9  C    0.185462   0.011411  -0.075719  -0.002624  -0.044634  -0.141638
    10  C   -0.060130   0.025318   0.185514  -0.143360  -0.076702  -0.026170
    11  C    0.018869  -0.021442   0.011448  -0.106838  -0.358747  -0.064681
    12  C    0.014612   0.022507  -0.075728   0.369427  -0.745698   0.114263
    13  C    6.673429   0.720910  -1.154685  -0.032479  -0.024089   0.024694
    14  C    0.720910   6.255797   0.497390   0.003327   0.006430  -0.003669
    15  C   -1.154685   0.497390   6.717665   0.024505  -0.018531  -0.033238
    16  C   -0.032479   0.003327   0.024505   6.863715   0.341887  -1.326256
    17  C   -0.024089   0.006430  -0.018531   0.341887   8.024124   0.270879
    18  C    0.024694  -0.003669  -0.033238  -1.326256   0.270879   6.856640
    19  C   -0.143557  -0.106810   0.369301  -0.029728  -0.007949   0.005241
    20  C   -0.077127  -0.358714  -0.745670  -0.049043  -0.005668  -0.009193
    21  C   -0.026195  -0.064721   0.114240   0.032706  -0.050678  -0.038068
    22  C    0.029685  -0.100808  -0.002718  -0.029726  -0.049057   0.032759
    23  C   -0.815866  -0.474096  -0.044934  -0.007952  -0.005656  -0.050625
    24  C    0.343903  -0.109539  -0.141659   0.005239  -0.009184  -0.038076
    25  H   -0.027969   0.057321   0.000797   0.000280  -0.000298  -0.000169
    26  H    0.000861  -0.000681   0.001626  -0.000304   0.000300   0.000094
    27  H    0.012785   0.000776  -0.002780   0.001139   0.000580   0.004232
    28  H    0.000051   0.000874   0.001072   0.008870   0.020285  -0.013563
    29  H    0.001282  -0.000059  -0.000415   0.006586  -0.121017   0.407644
    30  H   -0.000180   0.000001  -0.000099  -0.065418   0.412928  -0.036836
    31  H   -0.000207   0.000029   0.001221   0.396769  -0.124807   0.007807
    32  H    0.001276   0.000620  -0.000259  -0.005378   0.024470   0.008724
    33  H   -0.003496  -0.000871   0.006498   0.002723  -0.000735   0.000786
    34  H    0.005030   0.006039   0.004614   0.000073   0.000344  -0.000315
    35  H    0.000616   0.041922  -0.009610  -0.000251  -0.000296   0.000350
    36  H   -0.028289   0.321198  -0.027499   0.000066   0.000187   0.000064
              19         20         21         22         23         24
     1  C    0.062146  -0.082186  -0.070139   0.118886   0.188356  -0.078119
     2  C   -0.071754   0.162666   0.127796  -0.084875  -0.121123   0.082736
     3  C    0.118809   0.188316  -0.078037   0.025487   0.005295  -0.078181
     4  C   -0.084932  -0.121115   0.082903  -0.075568   0.018953   0.021394
     5  C    0.025419   0.005117  -0.078161   0.062293  -0.082212  -0.070204
     6  C   -0.075562   0.019029   0.021456  -0.071679   0.162685   0.127740
     7  C   -0.032492  -0.024077   0.024709  -0.143449  -0.076819  -0.026229
     8  C    0.003338   0.006453  -0.003663  -0.107068  -0.358988  -0.064673
     9  C    0.024526  -0.018538  -0.033242   0.369229  -0.745713   0.114206
    10  C    0.029651  -0.816056   0.343783  -0.032490  -0.024101   0.024707
    11  C   -0.100840  -0.474536  -0.109670   0.003342   0.006456  -0.003668
    12  C   -0.002673  -0.044876  -0.141661   0.024540  -0.018500  -0.033227
    13  C   -0.143557  -0.077127  -0.026195   0.029685  -0.815866   0.343903
    14  C   -0.106810  -0.358714  -0.064721  -0.100808  -0.474096  -0.109539
    15  C    0.369301  -0.745670   0.114240  -0.002718  -0.044934  -0.141659
    16  C   -0.029728  -0.049043   0.032706  -0.029726  -0.007952   0.005239
    17  C   -0.007949  -0.005668  -0.050678  -0.049057  -0.005656  -0.009184
    18  C    0.005241  -0.009193  -0.038068   0.032759  -0.050625  -0.038076
    19  C    6.863735   0.342174  -1.325897  -0.029727  -0.049101   0.032754
    20  C    0.342174   8.024835   0.271048  -0.007949  -0.005717  -0.050680
    21  C   -1.325897   0.271048   6.855952   0.005244  -0.009180  -0.038066
    22  C   -0.029727  -0.007949   0.005244   6.863353   0.342030  -1.325749
    23  C   -0.049101  -0.005717  -0.009180   0.342030   8.024374   0.270860
    24  C    0.032754  -0.050680  -0.038066  -1.325749   0.270860   6.856308
    25  H    0.002734  -0.000729   0.000784   0.006598  -0.120941   0.407621
    26  H    0.000071   0.000343  -0.000315  -0.065389   0.412927  -0.036854
    27  H   -0.000251  -0.000296   0.000350   0.396783  -0.124844   0.007824
    28  H    0.000067   0.000187   0.000064  -0.005395   0.024476   0.008730
    29  H    0.000280  -0.000298  -0.000169   0.002732  -0.000733   0.000784
    30  H   -0.000304   0.000299   0.000092   0.000072   0.000344  -0.000315
    31  H    0.001138   0.000582   0.004243  -0.000251  -0.000297   0.000350
    32  H    0.008861   0.020284  -0.013536   0.000066   0.000187   0.000064
    33  H    0.006598  -0.120981   0.407618   0.000280  -0.000297  -0.000169
    34  H   -0.065393   0.412936  -0.036830  -0.000304   0.000298   0.000092
    35  H    0.396780  -0.124810   0.007811   0.001138   0.000585   0.004238
    36  H   -0.005415   0.024466   0.008733   0.008877   0.020279  -0.013615
              25         26         27         28         29         30
     1  C    0.009668  -0.003693  -0.004643   0.001437  -0.003360  -0.000341
     2  C    0.006812  -0.001503   0.002379  -0.000956   0.000200   0.000588
     3  C   -0.003363  -0.000339   0.000976  -0.000776   0.002123  -0.002817
     4  C    0.000200   0.000586  -0.004345   0.002821  -0.005757  -0.000319
     5  C    0.002122  -0.002818   0.005970   0.016070   0.009658  -0.003685
     6  C   -0.005744  -0.000310   0.009239   0.021942   0.006824  -0.001506
     7  C   -0.003501   0.005041   0.000596  -0.028271  -0.027924   0.000850
     8  C   -0.000869   0.006031   0.041927   0.321174   0.057345  -0.000692
     9  C    0.006495   0.004606  -0.009575  -0.027552   0.000783   0.001631
    10  C    0.001280  -0.000180  -0.000207   0.001276  -0.003498   0.005039
    11  C   -0.000059   0.000001   0.000029   0.000620  -0.000863   0.006033
    12  C   -0.000415  -0.000098   0.001221  -0.000256   0.006518   0.004597
    13  C   -0.027969   0.000861   0.012785   0.000051   0.001282  -0.000180
    14  C    0.057321  -0.000681   0.000776   0.000874  -0.000059   0.000001
    15  C    0.000797   0.001626  -0.002780   0.001072  -0.000415  -0.000099
    16  C    0.000280  -0.000304   0.001139   0.008870   0.006586  -0.065418
    17  C   -0.000298   0.000300   0.000580   0.020285  -0.121017   0.412928
    18  C   -0.000169   0.000094   0.004232  -0.013563   0.407644  -0.036836
    19  C    0.002734   0.000071  -0.000251   0.000067   0.000280  -0.000304
    20  C   -0.000729   0.000343  -0.000296   0.000187  -0.000298   0.000299
    21  C    0.000784  -0.000315   0.000350   0.000064  -0.000169   0.000092
    22  C    0.006598  -0.065389   0.396783  -0.005395   0.002732   0.000072
    23  C   -0.120941   0.412927  -0.124844   0.024476  -0.000733   0.000344
    24  C    0.407621  -0.036854   0.007824   0.008730   0.000784  -0.000315
    25  H    0.494802  -0.020053   0.004243  -0.000066   0.000047  -0.000012
    26  H   -0.020053   0.497080  -0.018200   0.000319  -0.000123   0.000023
    27  H    0.004243  -0.018200   0.487088   0.001690   0.001104  -0.000127
    28  H   -0.000066   0.000319   0.001690   0.478474   0.002455   0.000195
    29  H    0.000047  -0.000123   0.001104   0.002455   0.494803  -0.020053
    30  H   -0.000012   0.000023  -0.000127   0.000195  -0.020053   0.497092
    31  H    0.000011  -0.000012   0.000043   0.000009   0.004243  -0.018184
    32  H   -0.000008   0.000002  -0.000009  -0.000015  -0.000066   0.000320
    33  H    0.000047  -0.000012   0.000011  -0.000008   0.000047  -0.000124
    34  H   -0.000123   0.000023  -0.000012   0.000002  -0.000013   0.000023
    35  H    0.001102  -0.000127   0.000043  -0.000009   0.000011  -0.000012
    36  H    0.002462   0.000195   0.000009  -0.000015  -0.000008   0.000002
              31         32         33         34         35         36
     1  C    0.000977  -0.000777   0.002113  -0.002815   0.005960   0.016054
     2  C   -0.004340   0.002833  -0.005729  -0.000317   0.009258   0.021947
     3  C    0.005967   0.016066   0.009658  -0.003688  -0.004662   0.001442
     4  C    0.009256   0.021927   0.006814  -0.001507   0.002383  -0.000949
     5  C   -0.004677   0.001437  -0.003359  -0.000342   0.000978  -0.000776
     6  C    0.002392  -0.000956   0.000204   0.000587  -0.004344   0.002831
     7  C    0.012782   0.000048   0.001279  -0.000180  -0.000208   0.001275
     8  C    0.000779   0.000874  -0.000059   0.000001   0.000029   0.000621
     9  C   -0.002782   0.001073  -0.000415  -0.000099   0.001221  -0.000261
    10  C    0.000625  -0.028235  -0.027940   0.000849   0.012786   0.000043
    11  C    0.041922   0.321190   0.057348  -0.000689   0.000780   0.000873
    12  C   -0.009618  -0.027589   0.000801   0.001631  -0.002778   0.001069
    13  C   -0.000207   0.001276  -0.003496   0.005030   0.000616  -0.028289
    14  C    0.000029   0.000620  -0.000871   0.006039   0.041922   0.321198
    15  C    0.001221  -0.000259   0.006498   0.004614  -0.009610  -0.027499
    16  C    0.396769  -0.005378   0.002723   0.000073  -0.000251   0.000066
    17  C   -0.124807   0.024470  -0.000735   0.000344  -0.000296   0.000187
    18  C    0.007807   0.008724   0.000786  -0.000315   0.000350   0.000064
    19  C    0.001138   0.008861   0.006598  -0.065393   0.396780  -0.005415
    20  C    0.000582   0.020284  -0.120981   0.412936  -0.124810   0.024466
    21  C    0.004243  -0.013536   0.407618  -0.036830   0.007811   0.008733
    22  C   -0.000251   0.000066   0.000280  -0.000304   0.001138   0.008877
    23  C   -0.000297   0.000187  -0.000297   0.000298   0.000585   0.020279
    24  C    0.000350   0.000064  -0.000169   0.000092   0.004238  -0.013615
    25  H    0.000011  -0.000008   0.000047  -0.000123   0.001102   0.002462
    26  H   -0.000012   0.000002  -0.000012   0.000023  -0.000127   0.000195
    27  H    0.000043  -0.000009   0.000011  -0.000012   0.000043   0.000009
    28  H    0.000009  -0.000015  -0.000008   0.000002  -0.000009  -0.000015
    29  H    0.004243  -0.000066   0.000047  -0.000013   0.000011  -0.000008
    30  H   -0.018184   0.000320  -0.000124   0.000023  -0.000012   0.000002
    31  H    0.487080   0.001685   0.001104  -0.000127   0.000043  -0.000009
    32  H    0.001685   0.478448   0.002453   0.000195   0.000009  -0.000015
    33  H    0.001104   0.002453   0.494798  -0.020054   0.004241  -0.000066
    34  H   -0.000127   0.000195  -0.020054   0.497046  -0.018198   0.000319
    35  H    0.000043   0.000009   0.004241  -0.018198   0.487062   0.001691
    36  H   -0.000009  -0.000015  -0.000066   0.000319   0.001691   0.478513
 Mulliken charges:
               1
     1  C   -0.045128
     2  C   -0.066402
     3  C   -0.045229
     4  C   -0.066255
     5  C   -0.045052
     6  C   -0.066530
     7  C    0.129472
     8  C   -0.294283
     9  C    0.221600
    10  C    0.129457
    11  C   -0.294356
    12  C    0.221186
    13  C    0.129310
    14  C   -0.293998
    15  C    0.221593
    16  C   -0.161142
    17  C   -0.340152
    18  C   -0.191389
    19  C   -0.161240
    20  C   -0.340478
    21  C   -0.191306
    22  C   -0.161192
    23  C   -0.340413
    24  C   -0.191345
    25  H    0.178893
    26  H    0.220884
    27  H    0.184251
    28  H    0.163719
    29  H    0.178886
    30  H    0.220895
    31  H    0.184253
    32  H    0.163731
    33  H    0.178894
    34  H    0.220904
    35  H    0.184264
    36  H    0.163698
 Sum of Mulliken charges =  -0.00000
 Mulliken charges with hydrogens summed into heavy atoms:
               1
     1  C   -0.045128
     2  C   -0.066402
     3  C   -0.045229
     4  C   -0.066255
     5  C   -0.045052
     6  C   -0.066530
     7  C    0.129472
     8  C   -0.130564
     9  C    0.221600
    10  C    0.129457
    11  C   -0.130625
    12  C    0.221186
    13  C    0.129310
    14  C   -0.130300
    15  C    0.221593
    16  C    0.023111
    17  C   -0.119258
    18  C   -0.012503
    19  C    0.023024
    20  C   -0.119575
    21  C   -0.012413
    22  C    0.023059
    23  C   -0.119529
    24  C   -0.012452
 Electronic spatial extent (au):  <R**2>=           6358.3691
 Charge=             -0.0000 electrons
 Dipole moment (field-independent basis, Debye):
    X=              0.0001    Y=             -0.0003    Z=              0.0000  Tot=              0.0004
 Quadrupole moment (field-independent basis, Debye-Ang):
   XX=           -115.2738   YY=           -115.2743   ZZ=           -146.1796
   XY=              0.0005   XZ=             -0.0000   YZ=             -0.0003
 Traceless Quadrupole moment (field-independent basis, Debye-Ang):
   XX=             10.3021   YY=             10.3016   ZZ=            -20.6037
   XY=              0.0005   XZ=             -0.0000   YZ=             -0.0003
 Octapole moment (field-independent basis, Debye-Ang**2):
  XXX=             14.9812  YYY=             -1.8307  ZZZ=              0.0000  XYY=            -14.9776
  XXY=              1.8224  XXZ=              0.0005  XZZ=             -0.0004  YZZ=             -0.0001
  YYZ=              0.0005  XYZ=              0.0004
 Hexadecapole moment (field-independent basis, Debye-Ang**3):
 XXXX=          -3895.4875 YYYY=          -3895.3186 ZZZZ=           -170.5634 XXXY=              0.0198
 XXXZ=             -0.0000 YYYX=             -0.0020 YYYZ=             -0.0047 ZZZX=              0.0001
 ZZZY=              0.0008 XXYY=          -1298.4635 XXZZ=           -857.3432 YYZZ=           -857.3112
 XXYZ=             -0.0026 YYXZ=             -0.0003 ZZXY=             -0.0002
 N-N= 1.816594030433D+03 E-N=-5.771892233895D+03  KE= 9.179103435131D+02
 PrsmSu:  requested number of processors reduced to:  26 ShMem   1 Linda.
 Calling FoFJK, ICntrl=      2127 FMM=F ISym2X=0 I1Cent= 0 IOpClX= 0 NMat=1 NMatS=1 NMatT=0.
 ***** Axes restored to original set *****
 -------------------------------------------------------------------
 Center     Atomic                   Forces (Hartrees/Bohr)
 Number     Number              X              Y              Z
 -------------------------------------------------------------------
      1        6           0.000520969    0.003260407    0.000000261
      2        6          -0.001189649    0.001313942   -0.000000289
      3        6          -0.003126377   -0.001120097   -0.000000052
      4        6          -0.000493743   -0.001791557    0.000000099
      5        6           0.002605805   -0.002082685   -0.000000016
      6        6           0.001728234    0.000376896    0.000000400
      7        6          -0.001968543    0.002141824    0.000000215
      8        6          -0.003277395    0.001401736   -0.000000535
      9        6          -0.000208955    0.001410208    0.000000334
     10        6           0.002853008    0.000621560   -0.000000428
     11        6           0.002855778    0.002154094    0.000001007
     12        6           0.001324546   -0.000490802    0.000000243
     13        6          -0.000974789   -0.002828775    0.000000659
     14        6           0.000499549   -0.003614484   -0.000000538
     15        6          -0.001158365   -0.000793559   -0.000000422
     16        6          -0.000550368    0.000301168   -0.000000502
     17        6          -0.001831412    0.000538516    0.000000047
     18        6          -0.001713583   -0.002343812   -0.000000692
     19        6           0.000527469    0.000322567    0.000001263
     20        6           0.001387370    0.001325884    0.000001566
     21        6          -0.001169150    0.002658024   -0.000001556
     22        6           0.000022136   -0.000616950   -0.000001066
     23        6           0.000470563   -0.001860695   -0.000000969
     24        6           0.002871633   -0.000307218   -0.000000985
     25        1           0.000614143   -0.000345503    0.000000483
     26        1           0.000481496   -0.000002103    0.000000610
     27        1          -0.000177750    0.000197858    0.000000844
     28        1           0.001758104   -0.000921672    0.000000198
     29        1          -0.000598990   -0.000358400    0.000000442
     30        1          -0.000245806   -0.000422725   -0.000000071
     31        1           0.000249683    0.000049049    0.000000448
     32        1          -0.001677424   -0.001064344   -0.000000921
     33        1          -0.000004558    0.000700575    0.000001352
     34        1          -0.000240300    0.000421557   -0.000001341
     35        1          -0.000081940   -0.000243370   -0.000000505
     36        1          -0.000081392    0.002012886    0.000000417
 -------------------------------------------------------------------
[...]
 0.00005666,0.00000394,0.00000064,0.00055472,0.00000288,0.00000213,0.00
 009103,-0.00000133,0.00000303,0.00001807,-0.00000321,-0.00000456,0.000
 00890,0.00000070,-0.00000018,-0.00000234,-0.00000039,0.00000073,-0.000
 00849,-0.00000020,-0.00000032,-0.00001521,-0.00000020,0.00000011,0.000
 04718,-0.00000030,-0.00000058,-0.00046990,0.00000061,0.,-0.00195790,-0
 .00000090,0.00000125,0.02508914,-0.00039553,0.00018519,-0.00000007,0.0
 0085101,0.00133099,-0.00000175,-0.00581992,-0.00013598,0.00000180,-0.0
 0178518,-0.00313061,-0.00000681,0.00099805,-0.00020399,0.00000588,-0.0
 0014486,-0.00020476,-0.00000383,-0.00009329,0.00020550,-0.00000237,0.0
 0012022,-0.00008631,0.00000302,-0.00007716,-0.00007408,0.00000089,-0.0
 0497325,0.02592046,0.00000593,-0.13126146,0.12581925,-0.00000166,0.010
 64291,-0.01253887,-0.00000112,0.00001645,0.00011413,0.00000293,-0.0000
 3424,0.00003003,0.00000065,0.00019669,-0.00008547,-0.00000260,0.001273
 14,0.00024246,0.00000093,-0.00016011,0.00034747,0.00000154,0.00016278,
 -0.00004009,0.00000056,0.00002507,-0.00005312,0.00000293,0.00005073,-0
 .00022718,-0.00000328,0.00150969,0.00091281,-0.00000134,0.00001259,0.0
 0001564,0.00000087,0.00002096,-0.00004878,-0.00000070,-0.00005297,0.00
 004019,0.00000133,-0.00000763,0.00001510,0.00000032,-0.00000119,0.0000
 0442,-0.00000106,0.00000390,-0.00000622,-0.00000090,0.00000630,-0.0000
 0575,-0.00000196,-0.00000995,0.00002067,0.00000054,-0.00002044,-0.0000
 0989,-0.00000093,-0.00033086,0.00061947,0.00000047,0.12957397,-0.00007
 311,-0.00017131,0.00000144,0.00018797,0.00025383,0.00000345,-0.0004424
 9,0.00033760,-0.00000401,-0.00242248,-0.00385631,0.00001356,0.00101595
 ,0.00028876,-0.00000954,0.00021835,-0.00041686,0.00000654,-0.00014613,
 0.00017654,0.00000410,0.00007660,-0.00007638,-0.00000693,-0.00007909,0
 .00011779,-0.00000144,-0.00294833,0.00294826,-0.00001143,0.12677222,-0
 .27700436,0.00000287,0.01575775,-0.01115908,0.00000136,-0.00015129,-0.
 00021527,-0.00000639,0.00011713,0.00027743,-0.00000202,-0.00012903,-0.
 00053822,0.00000599,0.00048080,0.00042923,-0.00000214,-0.00012889,0.00
 031853,-0.00000198,0.00005342,-0.00007179,-0.00000181,-0.00005384,0.00
 067731,-0.00000607,0.00062152,-0.00044487,0.00000635,-0.00043425,0.000
 51245,0.00000268,0.00030258,-0.00012107,-0.00000167,-0.00030709,-0.000
 04679,0.00000121,0.00008794,0.00021473,-0.00000274,0.00000597,0.000006
 02,-0.00000059,0.00000445,-0.00000774,0.00000231,0.00001225,-0.0000103
 0,0.00000187,0.00001081,-0.00001111,0.00000437,-0.00001138,0.00000614,
 -0.00000115,-0.00007470,-0.00006294,0.00000170,-0.00087568,0.00000314,
 -0.00000087,-0.13804610,0.28769231,0.00000483,-0.00000885,-0.00049120,
 -0.00000386,0.00001403,0.00119536,0.00000576,0.00000105,0.00599660,-0.
 00000486,-0.00000389,0.00138644,-0.00000200,0.00000178,0.00187598,0.00
 000893,-0.00000485,0.00001873,-0.00000777,-0.00000037,-0.00007075,0.00
 000031,0.00000284,0.00002927,-0.00000523,0.00000529,-0.00028859,0.0000
 0020,0.00000578,0.00230295,0.00000524,0.00000018,-0.02582764,-0.000000
 14,-0.00000789,-0.00078734,-0.00000872,0.00000068,-0.00000211,-0.00000
 309,-0.00000199,0.00002817,0.00000387,-0.00000019,0.00003231,-0.000001
 61,-0.00000009,-0.00140408,0.00000189,-0.00000605,-0.00027715,-0.00000
 117,0.00000985,0.00010787,-0.00000066,-0.00000265,0.00025095,-0.000007
 56,0.00000079,-0.00030561,0.00000992,-0.00000231,-0.00404361,0.0000107
 7,-0.00000741,-0.00005838,0.00000012,0.00000617,0.00001830,-0.00000282
 ,-0.00000432,-0.00009044,0.00000140,-0.00000029,-0.00002485,0.,0.00000
 207,0.00000407,-0.00000160,-0.00000167,0.00005794,0.00000009,-0.000000
 39,-0.00000308,-0.00000211,-0.00000206,0.00003510,0.00000341,-0.000000
 87,0.00001121,-0.00000402,0.00000107,0.00031210,-0.00000117,0.00000302
 ,0.01957606,0.00007917,-0.00016053,-0.00000157,-0.00045296,0.00007720,
 0.00000049,-0.00290322,-0.00200744,0.00000006,0.00023030,-0.00138837,0
 .00000190,-0.00043648,0.00012446,-0.00000454,0.00015029,-0.00003507,0.
 00000242,-0.00015845,-0.00002718,0.00000145,0.00006873,-0.00011099,0.0
 0000029,-0.00019652,0.00020144,-0.00000056,0.01041431,-0.02247244,-0.0
 0000232,0.00069976,-0.00026722,0.00000089,0.00041846,0.00041493,0.0000
 0163,-0.00025258,-0.00032252,-0.00000020,0.00021387,0.00059063,0.00000
 100,-0.00008000,-0.00080542,-0.00000053,-0.00034439,-0.00019671,0.0000
 0025,0.00008334,0.00034072,-0.00000198,0.00020429,-0.00020615,0.000000
 72,-0.00396119,-0.00062171,-0.00000057,-0.01110484,0.03135181,0.000001
 14,-0.08356254,0.07962644,0.00000051,0.00031413,-0.00015153,-0.0000003
 4,-0.00037062,-0.00008844,0.00000047,0.00013337,0.00032636,-0.00000025
 ,-0.00000241,0.00000404,-0.00000023,-0.00000096,0.00000012,0.00000005,
 0.00000996,0.00000486,0.00000009,0.00001135,-0.00000432,-0.00000001,0.
 00000429,-0.00000005,-0.00000008,0.00000066,0.00001035,0.00000051,-0.0
 0001889,-0.00002228,-0.00000029,-0.00023718,0.00054716,-0.00000043,0.0
 9219388,-0.00005652,-0.00021131,0.00000123,-0.00037770,0.00034249,-0.0
 0000127,-0.00375971,-0.00024571,0.00000093,0.00033931,-0.00131277,-0.0
 0000513,-0.00050576,0.00019672,0.00000678,0.00019570,-0.00004503,-0.00
 000392,-0.00001662,-0.00010721,-0.00000247,-0.00007587,-0.00002690,0.0
 0000127,0.00002909,0.00010529,0.00000096,0.00951445,-0.01980047,0.0000
 0488,0.00052758,0.00129527,-0.00000164,-0.00023363,-0.00011187,-0.0000
 0182,-0.00011463,-0.00013549,0.00000162,0.00009472,0.00022368,-0.00000
 057,-0.00024568,-0.00011651,-0.00000084,-0.00007304,-0.00000305,0.0000
 0027,0.00012836,0.00004016,0.00000244,-0.00002556,-0.00006638,-0.00000
 028,0.00038137,0.00240223,0.00000189,-0.00163512,-0.00256444,-0.000002
 60,0.08329765,-0.30673199,-0.00000130,0.00009910,-0.00011818,0.0000007
 5,-0.00017459,0.00003882,-0.00000083,0.00008599,0.00007612,0.00000096,
 0.00000623,-0.00000014,0.00000034,0.00000827,-0.00000982,-0.00000055,0
 .00000405,-0.00000283,-0.00000054,0.00000671,-0.00001204,-0.00000097,-
 0.00000330,-0.00000653,0.00000032,-0.00001865,-0.00000653,-0.00000088,
 -0.00002255,-0.00000330,0.00000045,-0.00088052,-0.00005721,-0.00000025
 ,-0.08641667,0.32551164,-0.00000415,-0.00000589,-0.00061321,-0.0000004
 1,0.00000082,0.00066728,0.00000613,-0.00000023,0.00420125,-0.00000206,
 -0.00000685,-0.00125106,-0.00000491,0.00000644,-0.00002061,0.00000487,
 0.00000202,-0.00007329,0.00000594,-0.00000148,0.00026149,-0.00000339,0
 .00000065,-0.00008051,0.00000726,-0.00000309,0.00004822,-0.00000161,-0
 .00000359,0.00614753,-0.00000219,0.00000006,-0.00183556,0.00000298,0.0
 0000492,-0.00030686,0.00000365,0.00000348,-0.00000534,-0.00000176,-0.0
 0000167,-0.00114361,-0.00000234,0.00000398,0.00009962,-0.00000249,-0.0
 0000243,0.00006263,0.00000034,0.00000144,0.00006025,-0.00000122,-0.000
 00197,-0.00000815,-0.00000139,0.00000129,0.00948859,0.00000273,-0.0000
 0232,0.00584018,-0.00000099,0.00000178,-0.03997680,-0.00000273,0.00000
 636,0.00000336,-0.00000149,0.00000011,0.00000786,-0.00000209,-0.000002
 82,0.00027453,0.00000005,-0.00000002,-0.00001151,-0.00000044,-0.000000
 34,-0.00003007,0.00000067,0.00000059,-0.00000159,-0.00000029,0.0000003
 0,-0.00002453,0.00000080,0.00000053,-0.00001157,-0.00000120,0.00000048
 ,-0.00000542,0.00000124,0.00000070,-0.00001320,0.00000124,-0.00000270,
 0.00024936,-0.00000013,0.00000096,0.02531831,0.00005084,0.00006053,-0.
 00000379,-0.00037097,-0.00010510,0.00000220,0.00006686,0.00035506,-0.0
 0000096,0.00006892,-0.00011292,0.00000827,0.00005701,-0.00003163,-0.00
 001394,-0.00008640,0.00003045,0.00000786,0.00021108,-0.00012593,0.0000
 0476,-0.00019039,0.00011461,-0.00000088,0.00032759,-0.00014795,-0.0000
 0190,-0.00498825,0.00264749,-0.00000853,0.00048967,-0.00111661,0.00000
 301,-0.00088506,-0.00031165,0.00000436,-0.00001049,0.00059143,-0.00000
 199,0.00046001,-0.00016522,0.00000194,-0.00194125,0.00350417,0.0000002
 3,0.00032798,0.00014752,0.00000002,-0.00001677,-0.00036070,-0.00000544
 ,-0.00027066,0.00017462,0.00000138,0.00876397,0.01887868,-0.00000285,-
 0.12835873,-0.12156141,0.00000436,-0.01840775,-0.02873364,0.00000172,-
 0.00035461,0.00006607,-0.00000129,0.00028939,0.00023016,0.00000149,0.0
 0002080,-0.00038461,-0.00000132,-0.00000063,-0.00000901,-0.00000067,0.
 00001334,0.00000446,0.00000068,-0.00000119,-0.00000100,0.00000075,-0.0
 0000273,-0.00000479,0.00000098,-0.00000272,-0.00000131,-0.00000045,-0.
 00001703,-0.00002130,0.00000167,0.00000132,0.00001196,-0.00000093,-0.0
 0005769,0.00005025,-0.00000034,-0.00027300,-0.00020762,-0.00000085,0.1
 4420924,-0.00003716,0.00005020,-0.00000643,0.00062610,0.00044543,0.000
 00050,0.00003795,0.00008100,0.00000164,0.00015486,0.00021882,0.0000014
 9,-0.00005155,-0.00011460,-0.00001262,-0.00005030,0.00002557,0.0000062
 6,-0.00006068,0.00013066,0.00000375,0.00012493,-0.00013090,0.00000399,
 -0.00018388,-0.00000635,-0.00000170,0.00156652,0.00133548,-0.00000346,
 -0.00046997,-0.00000636,0.00000222,0.00021922,0.00026421,0.00000514,0.
 00033987,-0.00057333,0.00000194,-0.00088804,-0.00026432,0.00000426,0.0
 0438922,-0.00269014,-0.00000416,-0.00017149,-0.00012790,0.00000163,-0.
 00002573,0.00021248,-0.00000626,0.00017287,-0.00010119,0.00000337,-0.0
 1420916,-0.02199348,0.00000048,-0.12275735,-0.26055750,0.00000143,0.00
 427570,0.00334661,0.00000046,0.00012892,0.00001428,-0.00000064,-0.0000
 5810,-0.00019415,0.00000123,-0.00014312,0.00019574,0.00000023,0.000018
 52,-0.00000410,-0.00000048,-0.00000788,-0.00002494,-0.00000077,-0.0000
 0492,-0.00001118,-0.00000031,-0.00000603,-0.00000818,-0.00000193,-0.00
 000816,-0.00000489,0.00000021,-0.00001093,0.00000652,0.00000108,-0.000
 01117,0.00000203,-0.00000067,-0.00002271,-0.00000271,-0.00000288,0.000
 78054,0.00174927,0.00000084,0.12578698,0.27828222,0.00000033,-0.000003
 13,-0.00002920,-0.00000092,0.00000345,-0.00004538,0.00000233,0.0000001
 3,-0.00021810,-0.00000151,-0.00000216,-0.00016517,-0.00000137,0.000001
 64,-0.00000141,0.00000296,-0.00000080,-0.00001942,-0.00000070,-0.00000
 019,0.00004488,-0.00000060,0.00000069,0.00000179,0.00000013,0.00000057
 ,0.00000583,-0.00000019,0.00000064,0.01092418,0.00000068,0.00000007,-0
 .00024137,0.00000073,-0.00000086,-0.00108230,-0.00000128,0.00000065,-0
 .00029461,-0.00000097,-0.00000071,-0.00012918,0.00000046,0.00000070,0.
 00406634,-0.00000087,-0.00000050,-0.00001963,0.00000036,-0.00000108,0.
 00021837,-0.00000041,0.00000181,-0.00001151,-0.00000041,-0.00000044,0.
 00391697,-0.00000118,-0.00000036,-0.03986466,0.00000197,-0.00000013,0.
 00522794,0.00000199,-0.00000052,-0.00000378,-0.00000020,0.00000149,0.0
 0007072,-0.00000116,-0.00000149,-0.00002577,0.00000035,-0.00000006,-0.
 00000654,-0.00000006,0.00000041,0.00000041,-0.00000023,-0.00000027,-0.
 00000902,-0.00000005,-0.00000004,0.00000448,-0.00000038,-0.00000039,-0
 .00003091,0.00000060,-0.00000012,0.00000015,-0.00000071,0.00000037,-0.
 00007081,-0.00000004,0.00000022,0.00014417,-0.00000009,0.00000009,-0.0
 0688386,-0.00000015,-0.00000036,0.02647032,-0.00071207,-0.00010990,0.0
 0000193,0.00164106,-0.00123509,-0.00000031,0.00058670,0.00015311,-0.00
 000046,-0.00029024,-0.00038256,-0.00000069,-0.00011191,0.00031173,0.00
 000386,0.00036134,-0.00029286,-0.00000214,-0.00013102,0.00001981,-0.00
 000108,0.00001229,-0.00006806,-0.00000086,-0.00011069,0.00016124,0.000
 00053,0.00042881,0.00019262,0.00000128,-0.00005133,-0.00014928,-0.0000
 0049,0.00006152,0.00011408,-0.00000158,-0.00012101,-0.00042869,-0.0000
 0035,0.00135355,0.00120169,-0.00000085,-0.00755363,-0.00100468,0.00000
 075,-0.00016748,-0.00013578,-0.00000027,0.00010255,0.00015856,0.000001
 71,0.00004670,-0.00011195,-0.00000099,-0.32134136,-0.05492207,0.000000
 04,-0.01610617,-0.00604746,-0.00000072,0.00048678,0.00346021,-0.000000
 16,0.00021229,-0.00013766,0.00000016,-0.00029781,-0.00003199,-0.000000
 19,0.00008656,0.00023019,-0.00000010,0.00001237,0.00000364,0.00000013,
 0.00000398,-0.00001410,0.00000009,0.00000741,-0.00000352,0.00000003,-0
 .00000416,0.00000104,0.00000041,0.00000415,-0.00000792,0.00000002,-0.0
 0001291,-0.00000450,-0.00000036,0.00000031,-0.00000022,0.00000023,0.00
 000963,0.00000010,0.00000062,-0.00087222,0.00011883,-0.00000013,0.0008
 9528,0.00048674,0.00000012,0.34154362,-0.00167625,-0.00019626,0.000004
 30,0.00039207,-0.00480218,0.00000190,0.00044363,-0.00033361,-0.0000034
 0,-0.00026575,0.00002115,0.00000769,0.00007667,0.00011490,0.00000085,0
 .00015933,-0.00055621,0.00000068,0.00012763,-0.00007531,0.00000048,-0.
 00018974,-0.00002106,-0.00000647,0.00006195,0.00006314,0.00000008,-0.0
 0053932,-0.00048173,-0.00000528,0.00045516,0.00032040,0.00000053,-0.00
 018134,-0.00046457,-0.00000189,0.00012193,0.00024598,-0.00000498,-0.00
 035933,0.00096856,-0.00000351,-0.03347172,-0.00255156,0.00000589,0.000
 15249,0.00019639,-0.00000219,0.00000717,-0.00018666,0.00000215,-0.0001
 1968,0.00007793,-0.00000301,-0.05602575,-0.06950218,-0.00000408,0.0272
 5291,0.00439775,0.00000306,0.00202753,-0.00319914,0.00000142,-0.000131
 46,-0.00005678,-0.00000066,0.00001789,0.00017954,0.00000008,0.00007778
 ,-0.00018874,-0.00000186,0.00000553,-0.00003494,-0.00000012,0.00001030
 ,0.00000107,0.00000185,0.00001034,-0.00000620,0.00000131,-0.00001717,-
 0.00000160,0.00000378,-0.00000822,0.00000134,-0.00000081,0.00000112,-0
 .00000118,0.00000048,-0.00001675,0.00000459,-0.00000018,-0.00003776,0.
 00000954,0.00000351,0.00092947,-0.00028433,-0.00000213,0.00074076,0.00
 052550,0.00000043,0.05930038,0.07617042,-0.00000074,-0.00000146,-0.000
 86609,-0.00000009,0.00000067,0.00987342,0.00000138,-0.00000010,-0.0001
 6332,-0.00000071,-0.00000161,-0.00092762,-0.00000105,0.00000147,0.0001
 6124,0.00000124,0.00000020,-0.00025778,0.00000120,-0.00000023,0.000057
 61,-0.00000075,0.00000018,-0.00012400,0.00000129,-0.00000054,-0.000169
 11,-0.00000030,-0.00000058,0.00061953,-0.00000040,0.00000005,-0.000302
 88,0.00000082,0.00000080,-0.00001295,0.00000062,0.00000077,0.00027760,
 -0.00000044,-0.00000040,-0.00601876,-0.00000056,0.00000074,0.00710924,
 -0.00000054,-0.00000036,0.00009112,-0.00000005,0.00000004,0.00001760,-
 0.00000040,-0.00000020,0.00000957,-0.00000025,0.00000020,-0.04060873,0
 .00000058,-0.00000054,0.00429196,-0.00000015,0.00000048,0.00344799,-0.
 00000030,0.00000096,0.00000118,-0.00000023,0.00000029,0.00005600,-0.00
 000056,-0.00000081,0.00055395,0.00000008,0.,-0.00001260,-0.00000007,-0
 .00000001,-0.00007070,0.00000012,0.00000011,-0.00001551,-0.00000005,0.
 00000007,0.00005887,0.00000007,0.00000008,-0.00000248,-0.00000013,0.00
 000005,-0.00000885,0.00000014,0.00000015,-0.00001579,0.00000022,-0.000
 00045,0.00004615,0.,0.00000015,-0.00046921,-0.00000016,0.00000010,-0.0
 0195719,0.00000007,-0.00000025,0.02502122,-0.00092365,-0.00234133,0.00
 000699,-0.00093638,0.00191430,-0.00000231,0.00008996,-0.00050783,-0.00
 000005,-0.00034643,-0.00007627,-0.00000828,-0.00025340,-0.00001682,0.0
 0001941,-0.00026427,0.00044954,-0.00001059,-0.00015764,0.00025048,-0.0
 0000626,0.00013905,-0.00022509,-0.00000131,-0.00028405,0.00040178,0.00
 000265,0.00009433,0.00005798,0.00000954,-0.00002931,-0.00000165,-0.000
 00383,0.00015011,-0.00003607,-0.00000667,-0.00898768,0.00525890,0.0000
 0073,-0.34985171,-0.00051608,-0.00000405,-0.00710961,-0.00551865,0.000
 00181,-0.00023706,-0.00015636,-0.00000077,0.00011645,0.00024155,0.0000
 0817,0.00009941,-0.00017953,-0.00000309,0.00032590,0.00005192,0.000002
 39,0.00010109,-0.00001998,-0.00000490,-0.00001622,0.00004527,-0.000001
 79,0.00056817,-0.00026663,0.00000145,-0.00048341,-0.00030979,-0.000001
 89,0.00054307,0.00098787,0.00000105,0.00004014,-0.00070563,0.00000083,
 -0.00003030,-0.00006873,-0.00000024,0.00002725,-0.00001255,-0.00000051
 ,-0.00000438,-0.00000108,0.00000015,-0.00000705,-0.00000709,0.00000031
 ,-0.00000867,-0.00000088,-0.00000209,-0.00001292,-0.00000310,0.0000011
 8,-0.00001117,0.00000069,0.00000180,-0.00000170,0.00000634,0.00000034,
 -0.00001700,0.00006939,0.00000048,0.00002712,0.00066822,0.00000009,0.3
 6765196,-0.00266040,-0.00452487,0.00000276,0.00261813,-0.00468004,-0.0
 0000042,0.00072336,0.00117393,-0.00000049,0.00031864,-0.00021420,-0.00
 000148,-0.00025673,-0.00028231,0.00000628,-0.00067799,0.00135785,-0.00
 000320,-0.00002210,-0.00005931,-0.00000197,-0.00012927,0.00011090,-0.0
 0000142,0.00034965,-0.00007757,0.00000087,-0.00030889,0.00000152,0.000
 00224,0.00017241,0.00006733,-0.00000120,-0.00004952,-0.00009819,-0.000
 00239,-0.02361898,0.00692754,-0.00000047,0.00042266,-0.05827304,-0.000
 00195,0.02279280,0.00653525,0.00000160,0.00012036,0.00011473,-0.000000
 64,-0.00000860,-0.00015280,0.00000298,-0.00012597,0.00007610,-0.000001
 42,0.00031184,0.00137208,0.00000011,-0.00050441,0.00005228,-0.00000108
 ,0.00015055,0.00010919,-0.00000037,-0.00025302,0.00013895,0.00000041,0
 .00054056,0.00009436,-0.00000066,-0.00037584,0.00145907,0.00000008,0.0
 0072113,-0.00033463,0.00000025,0.00000481,-0.00003105,0.00000022,0.000
 02759,-0.00000741,0.00000002,-0.00001787,-0.00000114,0.00000063,-0.000
 01667,0.00000381,-0.00000003,0.00000228,0.00000076,-0.00000058,0.00001
 215,0.00000392,0.00000036,0.00001441,0.00000470,0.00000113,-0.00002547
 ,-0.00000166,-0.00000023,0.00000718,-0.00006983,0.00000023,-0.00082569
 ,-0.00035394,0.,0.00056692,0.04955773,0.00000134,0.00000768,0.00599120
 ,0.00000192,-0.00000563,0.00139185,-0.00000665,-0.00000034,0.00185702,
 0.00000311,0.00000644,0.00002663,0.00000446,-0.00000536,-0.00049788,-0
 .00000691,0.00000016,0.00119615,-0.00000133,0.00000113,-0.00000323,0.0
 0000237,-0.00000146,0.00003407,-0.00000352,0.00000037,0.00003044,0.000
 00111,0.00000056,-0.00006287,-0.00000036,-0.00000004,0.00003058,-0.000
 00212,-0.00000087,-0.00029063,0.00000049,-0.00000249,0.00229283,0.0000
 0213,0.00000177,-0.02590261,0.00000014,-0.00000303,-0.00077937,0.00000
 252,0.00000210,-0.00005935,-0.00000104,0.00000098,0.00001976,0.0000010
 4,-0.00000213,-0.00009059,0.00000149,0.00000015,-0.00140151,0.00000097
 ,0.00000129,-0.00028709,-0.00000308,-0.00000047,0.00011072,-0.00000207
 ,-0.00000227,0.00024923,0.00000124,-0.00000218,-0.00030166,0.00000263,
 0.00000334,-0.00403620,-0.00000051,0.00000012,0.00024860,0.00000034,-0
 .00000047,0.00014242,0.00000011,0.00000022,0.00004563,0.00000020,-0.00
 000006,-0.00000435,0.00000016,0.00000040,-0.00002549,-0.00000033,-0.00
 000006,0.00000409,0.00000055,-0.00000095,0.00005862,-0.00000048,0.0000
 0089,-0.00000424,0.00000024,-0.00000040,0.00003550,0.00000080,0.000000
 44,0.00001328,-0.00000022,0.00000033,0.00030933,-0.00000074,-0.0000001
 6,0.01965912\\-0.00002470,-0.00005751,0.00000023,-0.00008390,0.0001416
 1,-0.00000015,0.00006682,-0.00000747,-0.00000011,-0.00009916,-0.000061
 51,-0.00000004,-0.00004898,-0.00000861,-0.00000002,0.00013636,0.000016
 62,0.00000026,-0.00015641,0.00021216,-0.00000016,0.00013299,-0.0000937
 6,0.00000035,-0.00021668,0.00008029,-0.00000043,0.00023091,0.00007816,
 0.00000013,-0.00015101,-0.00015026,-0.00000022,0.00019255,0.00022550,0
 .00000023,-0.00011093,-0.00023865,-0.00000017,-0.00000129,0.00017461,0
 .00000012,0.00007861,-0.00026519,-0.00000002,-0.00012471,-0.00018180,0
 .00000005,0.00000052,0.00021364,-0.00000005,0.00009810,-0.00018884,-0.
 00000007,-0.00008065,0.00019852,0.00000006,0.00019742,-0.00012476,0.00
 000006,-0.00019863,0.00001177,0.00000008,0.00022575,-0.00002637,-0.000
 00007,-0.00017754,-0.00012557,-0.00000007,0.00012452,0.00017655,-0.000
 00009,-0.00002027,-0.00000670,0.00000004,0.00000096,0.00000316,0.00000
 007,-0.00001995,-0.00000535,0.00000005,0.00002899,-0.00002079,0.000000
 04,0.00000235,0.00002181,0.00000003,0.00000349,-0.00000473,0.00000001,
 0.00000794,0.00002009,-0.00000001,-0.00003171,-0.00001736,-0.00000005,
 0.00001465,-0.00001377,0.,-0.00000720,0.00000162,-0.00000006,0.0000140
 2,-0.00001454,-0.00000004,-0.00000318,0.00003742,0.00000003\\\@


 ONLY A FOOL KNOWS EVERYTHING.

               -- THE CHEMIST ANALYST, SEPTEMBER 1946
 Job cpu time:       2 days 23 hours  8 minutes 47.1 seconds.
 Elapsed time:       0 days  1 hours 52 minutes 10.8 seconds.
 File lengths (MBytes):  RWF=   2742 Int=      0 D2E=      0 Chk=     31 Scr=      1
 Normal termination of Gaussian 16 at Thu Sep  1 18:33:30 2022.
