 Entering Gaussian System, Link 0=g16
 Initial command:
 /project/6004141/group/g16/g16/l1.exe "/scratch/hpham196/GaussianScratch/Gau-142304.inp" -scrdir="/scratch/hpham196/GaussianScratch/"
 Entering Link 1 = /project/6004141/group/g16/g16/l1.exe PID=    142306.
  
 Copyright (c) 1988,1990,1992,1993,1995,1998,2003,2009,2016,
            Gaussian, Inc.  All Rights Reserved.
  
 This is part of the Gaussian(R) 16 program.  It is based on
 the Gaussian(R) 09 system (copyright 2009, Gaussian, Inc.),
 the Gaussian(R) 03 system (copyright 2003, Gaussian, Inc.),
 the Gaussian(R) 98 system (copyright 1998, Gaussian, Inc.),
 the Gaussian(R) 94 system (copyright 1995, Gaussian, Inc.),
 the Gaussian 92(TM) system (copyright 1992, Gaussian, Inc.),
 the Gaussian 90(TM) system (copyright 1990, Gaussian, Inc.),
 the Gaussian 88(TM) system (copyright 1988, Gaussian, Inc.),
 the Gaussian 86(TM) system (copyright 1986, Carnegie Mellon
 University), and the Gaussian 82(TM) system (copyright 1983,
 Carnegie Mellon University). Gaussian is a federally registered
 trademark of Gaussian, Inc.
  
 This software contains proprietary and confidential information,
 including trade secrets, belonging to Gaussian, Inc.
  
 This software is provided under written license and may be
 used, copied, transmitted, or stored only in accord with that
 written license.
  
 The following legend is applicable only to US Government
 contracts under FAR:
  
                    RESTRICTED RIGHTS LEGEND
  
 Use, reproduction and disclosure by the US Government is
 subject to restrictions as set forth in subparagraphs (a)
 and (c) of the Commercial Computer Software - Restricted
 Rights clause in FAR 52.227-19.
  
 Gaussian, Inc.
 340 Quinnipiac St., Bldg. 40, Wallingford CT 06492
  
  
 ---------------------------------------------------------------
 Warning -- This program may not be used in any manner that
 competes with the business of Gaussian, Inc. or will provide
 assistance to any competitor of Gaussian, Inc.  The licensee
 of this program is prohibited from giving any competitor of
 Gaussian, Inc. access to this program.  By using this program,
 the user acknowledges that Gaussian, Inc. is engaged in the
 business of creating and licensing software in the field of
 computational chemistry and represents and warrants to the
 licensee that it is not a competitor of Gaussian, Inc. and that
 it will not use this program in any manner prohibited above.
 ---------------------------------------------------------------
  

 Cite this work as:
 Gaussian 16, Revision A.03,
 M. J. Frisch, G. W. Trucks, H. B. Schlegel, G. E. Scuseria, 
 M. A. Robb, J. R. Cheeseman, G. Scalmani, V. Barone, 
 G. A. Petersson, H. Nakatsuji, X. Li, M. Caricato, A. V. Marenich, 
 J. Bloino, B. G. Janesko, R. Gomperts, B. Mennucci, H. P. Hratchian, 
 J. V. Ortiz, A. F. Izmaylov, J. L. Sonnenberg, D. Williams-Young, 
 F. Ding, F. Lipparini, F. Egidi, J. Goings, B. Peng, A. Petrone, 
 T. Henderson, D. Ranasinghe, V. G. Zakrzewski, J. Gao, N. Rega, 
 G. Zheng, W. Liang, M. Hada, M. Ehara, K. Toyota, R. Fukuda, 
 J. Hasegawa, M. Ishida, T. Nakajima, Y. Honda, O. Kitao, H. Nakai, 
 T. Vreven, K. Throssell, J. A. Montgomery, Jr., J. E. Peralta, 
 F. Ogliaro, M. J. Bearpark, J. J. Heyd, E. N. Brothers, K. N. Kudin, 
 V. N. Staroverov, T. A. Keith, R. Kobayashi, J. Normand, 
 K. Raghavachari, A. P. Rendell, J. C. Burant, S. S. Iyengar, 
 J. Tomasi, M. Cossi, J. M. Millam, M. Klene, C. Adamo, R. Cammi, 
 J. W. Ochterski, R. L. Martin, K. Morokuma, O. Farkas, 
 J. B. Foresman, and D. J. Fox, Gaussian, Inc., Wallingford CT, 2016.
 
 ******************************************
 Gaussian 16:  ES64L-G16RevA.03 25-Dec-2016
                 9-Aug-2022 
 ******************************************
 %NProcShared=40
 Will use up to   40 processors via shared memory.
 %chk=Naphthalene.chk
 -------------------------------------------------
 # opt freq wb97xd/6-311++g(d,p) geom=connectivity
 -------------------------------------------------
 1/18=20,19=15,26=3,38=1,57=2/1,3;
 2/9=110,12=2,17=6,18=5,40=1/2;
 3/5=4,6=6,7=1111,11=2,25=1,30=1,71=1,74=-58/1,2,3;
 4//1;
 5/5=2,38=5/2;
 6/7=2,8=2,9=2,10=2,28=1/1;
 7//1,2,3,16;
 1/18=20,19=15,26=3/3(2);
 2/9=110/2;
 99//99;
 2/9=110/2;
 3/5=4,6=6,7=1111,11=2,25=1,30=1,71=1,74=-58/1,2,3;
 4/5=5,16=3,69=1/1;
 5/5=2,38=5/2;
 7//1,2,3,16;
 1/18=20,19=15,26=3/3(-5);
 2/9=110/2;
 6/7=2,8=2,9=2,10=2,19=2,28=1/1;
 99/9=1/99;
 ---------------
 sixmember-4.cdx
 ---------------
 Symbolic Z-matrix:
 Charge =  0 Multiplicity = 1
 C                     3.61103   6.25457   0. 
 C                     2.88827   5.00272   0. 
 C                     2.85282   7.45496   0. 
 C                     1.45077   7.45056   0. 
 C                     0.73391   6.18992   0. 
 C                     1.47525   5.01172   0. 
 C                     0.68433   8.67692   0. 
 C                    -0.68433   8.67692   0. 
 C                    -1.45077   7.45056   0. 
 C                    -0.73391   6.18992   0. 
 H                    -1.23337   9.62548   0. 
 H                     1.23337   9.62548   0. 
 H                     3.38016   8.41683   0. 
 H                     0.97433   4.03895   0. 
 H                    -2.52054   7.47278   0. 
 H                    -1.27195   5.26503   0. 
 H                     3.42032   4.07438   0. 
 H                     4.68082   6.27584   0. 
 

 GradGradGradGradGradGradGradGradGradGradGradGradGradGradGradGradGradGrad
 Berny optimization.
 Initialization pass.
                           ----------------------------
                           !    Initial Parameters    !
                           ! (Angstroms and Degrees)  !
 --------------------------                            --------------------------
 ! Name  Definition              Value          Derivative Info.                !
 --------------------------------------------------------------------------------
 ! R1    R(1,2)                  1.4455         estimate D2E/DX2                !
 ! R2    R(1,3)                  1.4198         estimate D2E/DX2                !
 ! R3    R(1,18)                 1.07           estimate D2E/DX2                !
 ! R4    R(2,6)                  1.413          estimate D2E/DX2                !
 ! R5    R(2,17)                 1.07           estimate D2E/DX2                !
 ! R6    R(3,4)                  1.4021         estimate D2E/DX2                !
 ! R7    R(3,13)                 1.0969         estimate D2E/DX2                !
 ! R8    R(4,5)                  1.4502         estimate D2E/DX2                !
 ! R9    R(4,7)                  1.4462         estimate D2E/DX2                !
 ! R10   R(5,6)                  1.392          estimate D2E/DX2                !
 ! R11   R(5,10)                 1.4678         estimate D2E/DX2                !
 ! R12   R(6,14)                 1.0942         estimate D2E/DX2                !
 ! R13   R(7,8)                  1.3687         estimate D2E/DX2                !
 ! R14   R(7,12)                 1.096          estimate D2E/DX2                !
 ! R15   R(8,9)                  1.4462         estimate D2E/DX2                !
 ! R16   R(8,11)                 1.096          estimate D2E/DX2                !
 ! R17   R(9,10)                 1.4502         estimate D2E/DX2                !
 ! R18   R(9,15)                 1.07           estimate D2E/DX2                !
 ! R19   R(10,16)                1.07           estimate D2E/DX2                !
 ! A1    A(2,1,3)              117.7218         estimate D2E/DX2                !
 ! A2    A(2,1,18)             121.1391         estimate D2E/DX2                !
 ! A3    A(3,1,18)             121.1391         estimate D2E/DX2                !
 ! A4    A(1,2,6)              119.6351         estimate D2E/DX2                !
 ! A5    A(1,2,17)             120.1825         estimate D2E/DX2                !
 ! A6    A(6,2,17)             120.1825         estimate D2E/DX2                !
 ! A7    A(1,3,4)              122.0984         estimate D2E/DX2                !
 ! A8    A(1,3,13)             118.9884         estimate D2E/DX2                !
 ! A9    A(4,3,13)             118.9133         estimate D2E/DX2                !
 ! A10   A(3,4,5)              119.8042         estimate D2E/DX2                !
 ! A11   A(3,4,7)              121.8244         estimate D2E/DX2                !
 ! A12   A(5,4,7)              118.3713         estimate D2E/DX2                !
 ! A13   A(4,5,6)              118.1967         estimate D2E/DX2                !
 ! A14   A(4,5,10)             119.6244         estimate D2E/DX2                !
 ! A15   A(6,5,10)             122.1789         estimate D2E/DX2                !
 ! A16   A(2,6,5)              122.5438         estimate D2E/DX2                !
 ! A17   A(2,6,14)             116.8808         estimate D2E/DX2                !
 ! A18   A(5,6,14)             120.5753         estimate D2E/DX2                !
 ! A19   A(4,7,8)              122.0042         estimate D2E/DX2                !
 ! A20   A(4,7,12)             117.9328         estimate D2E/DX2                !
 ! A21   A(8,7,12)             120.063          estimate D2E/DX2                !
 ! A22   A(7,8,9)              122.0042         estimate D2E/DX2                !
 ! A23   A(7,8,11)             120.063          estimate D2E/DX2                !
 ! A24   A(9,8,11)             117.9328         estimate D2E/DX2                !
 ! A25   A(8,9,10)             118.3713         estimate D2E/DX2                !
 ! A26   A(8,9,15)             120.8143         estimate D2E/DX2                !
 ! A27   A(10,9,15)            120.8143         estimate D2E/DX2                !
 ! A28   A(5,10,9)             119.6244         estimate D2E/DX2                !
 ! A29   A(5,10,16)            120.1878         estimate D2E/DX2                !
 ! A30   A(9,10,16)            120.1878         estimate D2E/DX2                !
 ! D1    D(3,1,2,6)              0.0            estimate D2E/DX2                !
 ! D2    D(3,1,2,17)           180.0            estimate D2E/DX2                !
 ! D3    D(18,1,2,6)           180.0            estimate D2E/DX2                !
 ! D4    D(18,1,2,17)            0.0            estimate D2E/DX2                !
 ! D5    D(2,1,3,4)              0.0            estimate D2E/DX2                !
 ! D6    D(2,1,3,13)           180.0            estimate D2E/DX2                !
 ! D7    D(18,1,3,4)           180.0            estimate D2E/DX2                !
 ! D8    D(18,1,3,13)            0.0            estimate D2E/DX2                !
 ! D9    D(1,2,6,5)              0.0            estimate D2E/DX2                !
 ! D10   D(1,2,6,14)           180.0            estimate D2E/DX2                !
 ! D11   D(17,2,6,5)           180.0            estimate D2E/DX2                !
 ! D12   D(17,2,6,14)            0.0            estimate D2E/DX2                !
 ! D13   D(1,3,4,5)              0.0            estimate D2E/DX2                !
 ! D14   D(1,3,4,7)            180.0            estimate D2E/DX2                !
 ! D15   D(13,3,4,5)           180.0            estimate D2E/DX2                !
 ! D16   D(13,3,4,7)             0.0            estimate D2E/DX2                !
 ! D17   D(3,4,5,6)              0.0            estimate D2E/DX2                !
 ! D18   D(3,4,5,10)           180.0            estimate D2E/DX2                !
 ! D19   D(7,4,5,6)            180.0            estimate D2E/DX2                !
 ! D20   D(7,4,5,10)             0.0            estimate D2E/DX2                !
 ! D21   D(3,4,7,8)            180.0            estimate D2E/DX2                !
 ! D22   D(3,4,7,12)             0.0            estimate D2E/DX2                !
 ! D23   D(5,4,7,8)              0.0            estimate D2E/DX2                !
 ! D24   D(5,4,7,12)           180.0            estimate D2E/DX2                !
 ! D25   D(4,5,6,2)              0.0            estimate D2E/DX2                !
 ! D26   D(4,5,6,14)           180.0            estimate D2E/DX2                !
 ! D27   D(10,5,6,2)           180.0            estimate D2E/DX2                !
 ! D28   D(10,5,6,14)            0.0            estimate D2E/DX2                !
 ! D29   D(4,5,10,9)             0.0            estimate D2E/DX2                !
 ! D30   D(4,5,10,16)          180.0            estimate D2E/DX2                !
 ! D31   D(6,5,10,9)           180.0            estimate D2E/DX2                !
 ! D32   D(6,5,10,16)            0.0            estimate D2E/DX2                !
 ! D33   D(4,7,8,9)              0.0            estimate D2E/DX2                !
 ! D34   D(4,7,8,11)           180.0            estimate D2E/DX2                !
 ! D35   D(12,7,8,9)           180.0            estimate D2E/DX2                !
 ! D36   D(12,7,8,11)            0.0            estimate D2E/DX2                !
 ! D37   D(7,8,9,10)             0.0            estimate D2E/DX2                !
 ! D38   D(7,8,9,15)           180.0            estimate D2E/DX2                !
 ! D39   D(11,8,9,10)          180.0            estimate D2E/DX2                !
 ! D40   D(11,8,9,15)            0.0            estimate D2E/DX2                !
 ! D41   D(8,9,10,5)             0.0            estimate D2E/DX2                !
 ! D42   D(8,9,10,16)          180.0            estimate D2E/DX2                !
 ! D43   D(15,9,10,5)          180.0            estimate D2E/DX2                !
 ! D44   D(15,9,10,16)           0.0            estimate D2E/DX2                !
 --------------------------------------------------------------------------------
 Trust Radius=3.00D-01 FncErr=1.00D-07 GrdErr=1.00D-06 EigMax=2.50D+02 EigMin=1.00D-04
 Number of steps in this run=    103 maximum allowed number of steps=    108.
 GradGradGradGradGradGradGradGradGradGradGradGradGradGradGradGradGradGrad

                          Input orientation:                          
 ---------------------------------------------------------------------
 Center     Atomic      Atomic             Coordinates (Angstroms)
 Number     Number       Type             X           Y           Z
 ---------------------------------------------------------------------
      1          6           0        3.611029    6.254569    0.000000
      2          6           0        2.888273    5.002722    0.000000
      3          6           0        2.852816    7.454957    0.000000
      4          6           0        1.450768    7.450558    0.000000
      5          6           0        0.733912    6.189916    0.000000
      6          6           0        1.475253    5.011723    0.000000
      7          6           0        0.684326    8.676921    0.000000
      8          6           0       -0.684326    8.676921    0.000000
      9          6           0       -1.450768    7.450558    0.000000
     10          6           0       -0.733912    6.189916    0.000000
     11          1           0       -1.233368    9.625479    0.000000
     12          1           0        1.233368    9.625479    0.000000
     13          1           0        3.380156    8.416828    0.000000
     14          1           0        0.974331    4.038947    0.000000
     15          1           0       -2.520537    7.472777    0.000000
     16          1           0       -1.271946    5.265027    0.000000
     17          1           0        3.420318    4.074375    0.000000
     18          1           0        4.680818    6.275839    0.000000
 ---------------------------------------------------------------------
                    Distance matrix (angstroms):
                    1          2          3          4          5
     1  C    0.000000
     2  C    1.445509   0.000000
     3  C    1.419795   2.452491   0.000000
     4  C    2.469234   2.838718   1.402055   0.000000
     5  C    2.877843   2.459817   2.467809   1.450207   0.000000
     6  C    2.471074   1.413049   2.804830   2.438958   1.392022
     7  C    3.799129   4.284521   2.489085   1.446167   2.487499
     8  C    4.931315   5.124764   3.742268   2.462233   2.862969
     9  C    5.201171   4.981885   4.303586   2.901536   2.522309
    10  C    4.345422   3.811778   3.803281   2.522309   1.467824
    11  H    5.901798   6.193368   4.626885   3.454688   3.958950
    12  H    4.125083   4.910050   2.708095   2.185759   3.471678
    13  H    2.174550   3.449358   1.096943   2.157827   3.458575
    14  H    3.444003   2.142904   3.898439   3.444718   2.164363
    15  H    6.251411   5.946125   5.373383   3.971367   3.498167
    16  H    4.982232   4.168480   4.670059   3.491377   2.208820
    17  H    2.188519   1.070000   3.427884   3.908675   3.419399
    18  H    1.070000   2.198646   2.175295   3.437031   3.947841
                    6          7          8          9         10
     6  C    0.000000
     7  C    3.749566   0.000000
     8  C    4.254111   1.368652   0.000000
     9  C    3.809136   2.462233   1.446167   0.000000
    10  C    2.503707   2.862969   2.487499   1.450207   0.000000
    11  H    5.350082   2.139465   1.095997   2.185759   3.471678
    12  H    4.620092   1.095997   2.139465   3.454688   3.958950
    13  H    3.901717   2.708348   4.072795   4.926612   4.678108
    14  H    1.094174   4.647032   4.925642   4.185713   2.746773
    15  H    4.692881   3.423611   2.195822   1.070000   2.199492
    16  H    2.758852   3.932940   3.462126   2.192834   1.070000
    17  H    2.159143   5.354352   6.166971   5.926727   4.661882
    18  H    3.445814   4.662310   5.877921   6.243101   5.415411
                   11         12         13         14         15
    11  H    0.000000
    12  H    2.466736   0.000000
    13  H    4.769218   2.463643   0.000000
    14  H    6.006936   5.592534   4.995381   0.000000
    15  H    2.508172   4.327347   5.975735   4.899520   0.000000
    16  H    4.360623   5.028930   5.619244   2.559108   2.536364
    17  H    7.243725   5.966364   4.342638   2.446244   6.844188
    18  H    6.796887   4.806766   2.505105   4.329172   7.300149
                   16         17         18
    16  H    0.000000
    17  H    4.840971   0.000000
    18  H    6.037974   2.536790   0.000000
 Stoichiometry    C10H8
 Framework group  CS[SG(C10H8)]
 Deg. of freedom    33
 Full point group                 CS      NOp   2
 Largest Abelian subgroup         CS      NOp   2
 Largest concise Abelian subgroup C1      NOp   1
                         Standard orientation:                         
 ---------------------------------------------------------------------
 Center     Atomic      Atomic             Coordinates (Angstroms)
 Number     Number       Type             X           Y           Z
 ---------------------------------------------------------------------
      1          6           0       -0.582892   -2.528274    0.000000
      2          6           0       -1.834739   -1.805518    0.000000
      3          6           0        0.617496   -1.770061    0.000000
      4          6           0        0.613097   -0.368013    0.000000
      5          6           0       -0.647545    0.348843    0.000000
      6          6           0       -1.825738   -0.392498    0.000000
      7          6           0        1.839460    0.398429    0.000000
      8          6           0        1.839460    1.767081    0.000000
      9          6           0        0.613097    2.533523    0.000000
     10          6           0       -0.647545    1.816667    0.000000
     11          1           0        2.788018    2.316123    0.000000
     12          1           0        2.788018   -0.150613    0.000000
     13          1           0        1.579367   -2.297401    0.000000
     14          1           0       -2.798514    0.108424    0.000000
     15          1           0        0.635317    3.603293    0.000000
     16          1           0       -1.572433    2.354701    0.000000
     17          1           0       -2.763085   -2.337563    0.000000
     18          1           0       -0.561621   -3.598062    0.000000
 ---------------------------------------------------------------------
 Rotational constants (GHZ):           3.0481129           1.1951089           0.8585050
 Standard basis: 6-311++G(d,p) (5D, 7F)
 There are   218 symmetry adapted cartesian basis functions of A'  symmetry.
 There are    68 symmetry adapted cartesian basis functions of A"  symmetry.
 There are   208 symmetry adapted basis functions of A'  symmetry.
 There are    68 symmetry adapted basis functions of A"  symmetry.
   276 basis functions,   432 primitive gaussians,   286 cartesian basis functions
    34 alpha electrons       34 beta electrons
       nuclear repulsion energy       451.4404579107 Hartrees.
 NAtoms=   18 NActive=   18 NUniq=   18 SFac= 1.00D+00 NAtFMM=   60 NAOKFM=F Big=F
 Integral buffers will be    131072 words long.
 Raffenetti 2 integral format.
 Two-electron integral symmetry is turned on.
 Nuclear repulsion after empirical dispersion term =      451.4314210064 Hartrees.
 One-electron integrals computed using PRISM.
 PrsmSu:  requested number of processors reduced to:  29 ShMem   1 Linda.
 NBasis=   276 RedAO= T EigKep=  1.84D-06  NBF=   208    68
 NBsUse=   274 1.00D-06 EigRej=  7.96D-07 NBFU=   206    68
 ExpMin= 3.60D-02 ExpMax= 4.56D+03 ExpMxC= 6.82D+02 IAcc=3 IRadAn=         5 AccDes= 0.00D+00
 Harris functional with IExCor= 4639 and IRadAn=       5 diagonalized for initial guess.
 HarFok:  IExCor= 4639 AccDes= 0.00D+00 IRadAn=         5 IDoV= 1 UseB2=F ITyADJ=14
 ICtDFT=  3500011 ScaDFX=  1.000000  1.000000  1.000000  1.000000
 FoFCou: FMM=F IPFlag=           0 FMFlag=      100000 FMFlg1=           0
         NFxFlg=           0 DoJE=T BraDBF=F KetDBF=T FulRan=T
         wScrn=  0.000000 ICntrl=       500 IOpCl=  0 I1Cent=   200000004 NGrid=           0
         NMat0=    1 NMatS0=      1 NMatT0=    0 NMatD0=    1 NMtDS0=    0 NMtDT0=    0
 Petite list used in FoFCou.
 Initial guess orbital symmetries:
       Occupied  (A') (A') (A') (A') (A') (A') (A') (A') (A') (A')
                 (A') (A') (A') (A') (A') (A') (A') (A') (A') (A')
                 (A') (A') (A') (A') (A') (A') (A") (A') (A') (A')
                 (A") (A") (A") (A")
       Virtual   (A") (A") (A') (A') (A') (A") (A') (A') (A') (A')
                 (A") (A') (A") (A') (A") (A") (A') (A') (A') (A')
                 (A') (A") (A') (A") (A') (A') (A') (A') (A") (A")
                 (A') (A") (A') (A') (A') (A') (A") (A') (A") (A')
                 (A') (A") (A') (A') (A') (A') (A') (A') (A') (A')
                 (A') (A') (A') (A') (A') (A') (A') (A') (A') (A')
                 (A') (A') (A') (A') (A') (A') (A') (A') (A') (A')
                 (A") (A') (A') (A") (A') (A') (A') (A") (A") (A')
                 (A") (A') (A') (A") (A") (A") (A') (A') (A") (A')
                 (A') (A') (A") (A') (A') (A') (A') (A') (A') (A')
                 (A') (A') (A') (A') (A') (A') (A') (A") (A') (A')
                 (A') (A") (A') (A') (A") (A") (A") (A') (A") (A")
                 (A') (A") (A') (A") (A') (A') (A') (A') (A') (A')
                 (A') (A") (A') (A') (A") (A") (A") (A') (A') (A")
                 (A') (A') (A') (A') (A') (A") (A') (A") (A") (A")
                 (A') (A') (A") (A') (A") (A') (A") (A') (A') (A')
                 (A") (A') (A') (A') (A") (A') (A') (A') (A") (A")
                 (A") (A') (A') (A") (A") (A') (A') (A') (A') (A')
                 (A') (A') (A') (A") (A') (A') (A") (A') (A') (A')
                 (A') (A') (A') (A") (A') (A') (A') (A') (A") (A")
                 (A') (A") (A") (A") (A') (A') (A") (A") (A') (A')
                 (A') (A') (A') (A') (A') (A') (A') (A') (A') (A')
                 (A') (A') (A') (A') (A') (A') (A') (A') (A') (A')
                 (A') (A') (A') (A') (A') (A') (A') (A') (A') (A')
 The electronic state of the initial guess is 1-A'.
 Requested convergence on RMS density matrix=1.00D-08 within 128 cycles.
 Requested convergence on MAX density matrix=1.00D-06.
 Requested convergence on             energy=1.00D-06.
 No special actions if energy rises.
 SCF Done:  E(RwB97XD) =  -385.827532097     A.U. after   15 cycles
            NFock= 15  Conv=0.69D-08     -V/T= 2.0061

 **********************************************************************

            Population analysis using the SCF density.

 **********************************************************************

 Orbital symmetries:
       Occupied  (A') (A') (A') (A') (A') (A') (A') (A') (A') (A')
                 (A') (A') (A') (A') (A') (A') (A') (A') (A') (A')
                 (A') (A') (A') (A') (A') (A') (A") (A') (A') (A')
                 (A") (A") (A") (A")
       Virtual   (A") (A") (A') (A') (A') (A') (A') (A") (A') (A')
                 (A') (A") (A') (A") (A") (A") (A') (A') (A') (A')
                 (A') (A') (A') (A') (A') (A") (A") (A') (A") (A")
                 (A') (A") (A') (A') (A') (A') (A') (A') (A") (A")
                 (A') (A") (A') (A') (A') (A') (A') (A') (A') (A')
                 (A') (A') (A') (A') (A') (A') (A') (A') (A') (A')
                 (A') (A') (A') (A') (A') (A') (A') (A') (A') (A')
                 (A") (A') (A') (A") (A') (A') (A") (A') (A") (A')
                 (A") (A') (A') (A") (A") (A") (A') (A') (A") (A')
                 (A') (A') (A") (A') (A') (A') (A') (A') (A') (A')
                 (A') (A') (A') (A') (A') (A') (A') (A') (A') (A")
                 (A') (A") (A') (A') (A") (A") (A") (A') (A') (A")
                 (A") (A') (A") (A") (A') (A') (A') (A') (A') (A')
                 (A') (A") (A') (A') (A") (A") (A") (A') (A') (A")
                 (A') (A') (A') (A') (A') (A") (A") (A') (A") (A")
                 (A') (A') (A") (A') (A") (A') (A') (A") (A') (A')
                 (A") (A') (A') (A') (A") (A') (A') (A") (A') (A")
                 (A") (A') (A') (A") (A") (A') (A') (A') (A') (A')
                 (A') (A') (A') (A') (A") (A') (A") (A') (A') (A')
                 (A') (A') (A') (A') (A') (A') (A") (A') (A") (A")
                 (A') (A") (A") (A") (A') (A') (A") (A") (A') (A')
                 (A') (A') (A') (A') (A') (A') (A') (A') (A') (A')
                 (A') (A') (A') (A') (A') (A') (A') (A') (A') (A')
                 (A') (A') (A') (A') (A') (A') (A') (A') (A') (A')
 The electronic state is 1-A'.
 Alpha  occ. eigenvalues --  -10.31022 -10.30816 -10.30785 -10.30601 -10.30209
 Alpha  occ. eigenvalues --  -10.30022 -10.29978 -10.29893 -10.29819 -10.29727
 Alpha  occ. eigenvalues --   -0.97341  -0.91655  -0.87516  -0.84140  -0.81586
 Alpha  occ. eigenvalues --   -0.72481  -0.70961  -0.69179  -0.61191  -0.60511
 Alpha  occ. eigenvalues --   -0.58371  -0.54214  -0.52884  -0.50694  -0.50318
 Alpha  occ. eigenvalues --   -0.49282  -0.48103  -0.45605  -0.42825  -0.41495
 Alpha  occ. eigenvalues --   -0.41174  -0.37037  -0.32034  -0.28954
 Alpha virt. eigenvalues --    0.00736   0.03624   0.03984   0.04697   0.04761
 Alpha virt. eigenvalues --    0.06215   0.06317   0.07313   0.08283   0.08682
 Alpha virt. eigenvalues --    0.11134   0.11730   0.11854   0.12515   0.13890
 Alpha virt. eigenvalues --    0.14030   0.14749   0.15324   0.15435   0.16163
 Alpha virt. eigenvalues --    0.16542   0.17348   0.17618   0.17737   0.17852
 Alpha virt. eigenvalues --    0.17914   0.18155   0.18484   0.19714   0.20461
 Alpha virt. eigenvalues --    0.21201   0.21890   0.21948   0.22181   0.22529
 Alpha virt. eigenvalues --    0.23856   0.25322   0.25499   0.25685   0.26996
 Alpha virt. eigenvalues --    0.27393   0.27948   0.28989   0.29081   0.29451
 Alpha virt. eigenvalues --    0.29710   0.30317   0.31187   0.32634   0.33038
 Alpha virt. eigenvalues --    0.33146   0.33427   0.34298   0.34461   0.34913
 Alpha virt. eigenvalues --    0.36071   0.36229   0.37027   0.37809   0.39293
 Alpha virt. eigenvalues --    0.39752   0.40876   0.42331   0.44526   0.45243
 Alpha virt. eigenvalues --    0.47973   0.54752   0.55670   0.56175   0.56722
 Alpha virt. eigenvalues --    0.60789   0.61704   0.62266   0.62320   0.63255
 Alpha virt. eigenvalues --    0.63742   0.65149   0.65314   0.65918   0.66413
 Alpha virt. eigenvalues --    0.67427   0.68321   0.68861   0.70445   0.70876
 Alpha virt. eigenvalues --    0.71758   0.74172   0.74695   0.77064   0.79755
 Alpha virt. eigenvalues --    0.80033   0.80453   0.80905   0.82296   0.83544
 Alpha virt. eigenvalues --    0.86852   0.87169   0.88902   0.89887   0.91257
 Alpha virt. eigenvalues --    0.92198   0.93091   0.94821   0.96388   0.97186
 Alpha virt. eigenvalues --    0.98082   0.99687   1.00941   1.01299   1.01663
 Alpha virt. eigenvalues --    1.02190   1.05128   1.05771   1.07268   1.10722
 Alpha virt. eigenvalues --    1.12399   1.13866   1.14079   1.16573   1.17010
 Alpha virt. eigenvalues --    1.17509   1.19415   1.21532   1.23224   1.25020
 Alpha virt. eigenvalues --    1.41367   1.41875   1.44375   1.54505   1.55960
 Alpha virt. eigenvalues --    1.56098   1.56767   1.57526   1.58490   1.58597
 Alpha virt. eigenvalues --    1.63430   1.63934   1.65156   1.65746   1.67333
 Alpha virt. eigenvalues --    1.70250   1.70789   1.71947   1.74820   1.80565
 Alpha virt. eigenvalues --    1.82019   1.82518   1.82979   1.83114   1.85311
 Alpha virt. eigenvalues --    1.89568   1.91247   1.94581   1.97759   1.97991
 Alpha virt. eigenvalues --    1.98627   1.99068   1.99206   2.01121   2.03261
 Alpha virt. eigenvalues --    2.03709   2.04327   2.05085   2.07510   2.09866
 Alpha virt. eigenvalues --    2.15473   2.18545   2.20361   2.20480   2.25352
 Alpha virt. eigenvalues --    2.26129   2.28864   2.32267   2.44167   2.46086
 Alpha virt. eigenvalues --    2.48177   2.48896   2.55963   2.56842   2.56945
 Alpha virt. eigenvalues --    2.58087   2.62688   2.71469   2.73048   2.74105
 Alpha virt. eigenvalues --    2.76114   2.78637   2.78798   2.79441   2.80364
 Alpha virt. eigenvalues --    2.82026   2.83248   2.84418   2.84805   2.85369
 Alpha virt. eigenvalues --    2.87694   2.88236   2.89798   2.91326   2.91967
 Alpha virt. eigenvalues --    2.93373   2.99332   2.99777   3.02130   3.02334
 Alpha virt. eigenvalues --    3.05444   3.14248   3.18046   3.22801   3.26110
 Alpha virt. eigenvalues --    3.37596   3.42015   3.42724   3.45745   3.49658
 Alpha virt. eigenvalues --    3.54834   3.58544   3.62188   3.68435   3.72714
 Alpha virt. eigenvalues --    3.81657   4.11516   4.13847   4.14890   4.17394
 Alpha virt. eigenvalues --    4.26392   4.28073   4.46453   4.85195   4.89733
 Alpha virt. eigenvalues --   23.67081  23.92382  24.00062  24.03048  24.08325
 Alpha virt. eigenvalues --   24.09934  24.12061  24.18677  24.24550  24.28568
          Condensed to atoms (all electrons):
               1          2          3          4          5          6
     1  C    6.197209   0.325212  -0.139205   0.204615   0.384660  -0.878355
     2  C    0.325212   6.157502  -0.712229   0.021529   0.041596   0.091248
     3  C   -0.139205  -0.712229   9.353821  -2.362362  -2.984298   2.862598
     4  C    0.204615   0.021529  -2.362362  15.031818  -0.169878  -2.801716
     5  C    0.384660   0.041596  -2.984298  -0.169878  15.556749  -2.853251
     6  C   -0.878355   0.091248   2.862598  -2.801716  -2.853251   9.650119
     7  C   -0.093943   0.184091  -0.201172  -2.191552  -1.720620  -0.321544
     8  C   -0.245900   0.043329   0.037940  -0.311232   0.204105   0.224424
     9  C    0.039572  -0.187896   0.139001   0.666810   0.090178  -0.121622
    10  C    0.243883   0.002139  -0.340144  -2.010553  -2.530882  -0.184592
    11  H    0.001334  -0.000007   0.001994   0.023684   0.004338  -0.008414
    12  H    0.038512  -0.002736   0.027073  -0.038323  -0.060266  -0.039053
    13  H   -0.073671   0.009697   0.459097  -0.081412  -0.041857   0.051855
    14  H    0.006865  -0.075625   0.047371  -0.025291  -0.050432   0.453234
    15  H    0.000001   0.001505  -0.006800   0.000337   0.032415   0.004822
    16  H   -0.000135   0.036413  -0.035263  -0.075109  -0.058775   0.038568
    17  H   -0.038122   0.418006  -0.028605  -0.021972   0.051825  -0.053088
    18  H    0.400451  -0.034170  -0.045162   0.062460  -0.026851  -0.031112
               7          8          9         10         11         12
     1  C   -0.093943  -0.245900   0.039572   0.243883   0.001334   0.038512
     2  C    0.184091   0.043329  -0.187896   0.002139  -0.000007  -0.002736
     3  C   -0.201172   0.037940   0.139001  -0.340144   0.001994   0.027073
     4  C   -2.191552  -0.311232   0.666810  -2.010553   0.023684  -0.038323
     5  C   -1.720620   0.204105   0.090178  -2.530882   0.004338  -0.060266
     6  C   -0.321544   0.224424  -0.121622  -0.184592  -0.008414  -0.039053
     7  C    8.416652   0.083301  -0.790276   2.336847  -0.056495   0.442742
     8  C    0.083301   6.204756   0.439906  -0.728513   0.424940  -0.075599
     9  C   -0.790276   0.439906   5.839867  -0.108988  -0.054434   0.008848
    10  C    2.336847  -0.728513  -0.108988   9.088823  -0.014982   0.047260
    11  H   -0.056495   0.424940  -0.054434  -0.014982   0.486481  -0.012509
    12  H    0.442742  -0.075599   0.008848   0.047260  -0.012509   0.486642
    13  H    0.020645   0.035814   0.000248  -0.035091   0.000454   0.002568
    14  H   -0.033729  -0.000325   0.029222  -0.004078  -0.000239   0.000011
    15  H   -0.020941  -0.050571   0.418585  -0.050241  -0.007501   0.000695
    16  H    0.048227   0.005444  -0.071068   0.464292   0.000401   0.001149
    17  H   -0.009549  -0.001167   0.001773   0.009861   0.000005  -0.000238
    18  H    0.012063   0.003461  -0.000016  -0.010005   0.000001   0.000513
              13         14         15         16         17         18
     1  C   -0.073671   0.006865   0.000001  -0.000135  -0.038122   0.400451
     2  C    0.009697  -0.075625   0.001505   0.036413   0.418006  -0.034170
     3  C    0.459097   0.047371  -0.006800  -0.035263  -0.028605  -0.045162
     4  C   -0.081412  -0.025291   0.000337  -0.075109  -0.021972   0.062460
     5  C   -0.041857  -0.050432   0.032415  -0.058775   0.051825  -0.026851
     6  C    0.051855   0.453234   0.004822   0.038568  -0.053088  -0.031112
     7  C    0.020645  -0.033729  -0.020941   0.048227  -0.009549   0.012063
     8  C    0.035814  -0.000325  -0.050571   0.005444  -0.001167   0.003461
     9  C    0.000248   0.029222   0.418585  -0.071068   0.001773  -0.000016
    10  C   -0.035091  -0.004078  -0.050241   0.464292   0.009861  -0.010005
    11  H    0.000454  -0.000239  -0.007501   0.000401   0.000005   0.000001
    12  H    0.002568   0.000011   0.000695   0.001149  -0.000238   0.000513
    13  H    0.485931   0.001105  -0.000181  -0.000109   0.000359  -0.009869
    14  H    0.001105   0.486040   0.000518   0.000530  -0.012064   0.000555
    15  H   -0.000181   0.000518   0.470958  -0.009143  -0.000003  -0.000004
    16  H   -0.000109   0.000530  -0.009143   0.472917   0.000487  -0.000140
    17  H    0.000359  -0.012064  -0.000003   0.000487   0.478508  -0.005921
    18  H   -0.009869   0.000555  -0.000004  -0.000140  -0.005921   0.470354
 Mulliken charges:
               1
     1  C   -0.372982
     2  C   -0.319605
     3  C   -0.073653
     4  C    0.078147
     5  C    0.131244
     6  C   -0.084119
     7  C   -0.104746
     8  C   -0.294113
     9  C   -0.339710
    10  C   -0.175036
    11  H    0.210950
    12  H    0.172710
    13  H    0.174419
    14  H    0.176333
    15  H    0.215548
    16  H    0.181315
    17  H    0.209904
    18  H    0.213392
 Sum of Mulliken charges =  -0.00000
 Mulliken charges with hydrogens summed into heavy atoms:
               1
     1  C   -0.159590
     2  C   -0.109700
     3  C    0.100766
     4  C    0.078147
     5  C    0.131244
     6  C    0.092214
     7  C    0.067964
     8  C   -0.083163
     9  C   -0.124161
    10  C    0.006279
 Electronic spatial extent (au):  <R**2>=           1324.3547
 Charge=             -0.0000 electrons
 Dipole moment (field-independent basis, Debye):
    X=             -0.0074    Y=             -0.0132    Z=              0.0000  Tot=              0.0152
 Quadrupole moment (field-independent basis, Debye-Ang):
   XX=            -50.9504   YY=            -50.4509   ZZ=            -65.2377
   XY=              0.2109   XZ=              0.0000   YZ=              0.0000
 Traceless Quadrupole moment (field-independent basis, Debye-Ang):
   XX=              4.5959   YY=              5.0954   ZZ=             -9.6914
   XY=              0.2109   XZ=              0.0000   YZ=              0.0000
 Octapole moment (field-independent basis, Debye-Ang**2):
  XXX=             -0.7674  YYY=              0.1197  ZZZ=              0.0000  XYY=              0.1679
  XXY=             -0.0815  XXZ=              0.0000  XZZ=              0.0776  YZZ=             -0.2672
  YYZ=              0.0000  XYZ=              0.0000
 Hexadecapole moment (field-independent basis, Debye-Ang**3):
 XXXX=           -639.2182 YYYY=           -956.8676 ZZZZ=            -78.7391 XXXY=           -134.8935
 XXXZ=              0.0000 YYYX=           -126.0777 YYYZ=              0.0000 ZZZX=              0.0000
 ZZZY=              0.0000 XXYY=           -264.9475 XXZZ=           -148.2261 YYZZ=           -220.1222
 XXYZ=              0.0000 YYXZ=              0.0000 ZZXY=            -57.0037
 N-N= 4.514314210064D+02 E-N=-1.797158859676D+03  KE= 3.834790199539D+02
 Symmetry A'   KE= 3.730076520466D+02
 Symmetry A"   KE= 1.047136790723D+01
 PrsmSu:  requested number of processors reduced to:  29 ShMem   1 Linda.
 Calling FoFJK, ICntrl=      2127 FMM=F ISym2X=1 I1Cent= 0 IOpClX= 0 NMat=1 NMatS=1 NMatT=0.
 ***** Axes restored to original set *****
 -------------------------------------------------------------------
 Center     Atomic                   Forces (Hartrees/Bohr)
 Number     Number              X              Y              Z
 -------------------------------------------------------------------
      1        6          -0.053174339    0.002461968   -0.000000000
      2        6          -0.018790815    0.039632861   -0.000000000
      3        6           0.030872662   -0.021848713   -0.000000000
      4        6          -0.026063841   -0.001387997   -0.000000000
      5        6          -0.024750496    0.023909963   -0.000000000
      6        6           0.036369277   -0.022704756   -0.000000000
      7        6           0.008273065   -0.008201935   -0.000000000
      8        6          -0.014737082   -0.011887251   -0.000000000
      9        6           0.062235382   -0.040301186   -0.000000000
     10        6           0.002679506    0.069507357   -0.000000000
     11        1           0.004714716   -0.005849084   -0.000000000
     12        1          -0.003755099   -0.005950979   -0.000000000
     13        1          -0.003977099   -0.006287091   -0.000000000
     14        1          -0.000496088    0.006402408   -0.000000000
     15        1          -0.008801726   -0.000453466   -0.000000000
     16        1          -0.003768348   -0.009081531   -0.000000000
     17        1           0.004337648   -0.008348499   -0.000000000
     18        1           0.008832676    0.000387933   -0.000000000
 -------------------------------------------------------------------
 Cartesian Forces:  Max     0.069507357 RMS     0.019844452

 GradGradGradGradGradGradGradGradGradGradGradGradGradGradGradGradGradGrad
 Berny optimization.
 FormGI is forming the generalized inverse of G from B-inverse, IUseBI=4.
 Internal  Forces:  Max     0.065949542 RMS     0.011160909
 Search for a local minimum.
 Step number   1 out of a maximum of  103
 All quantities printed in internal units (Hartrees-Bohrs-Radians)
 Mixed Optimization -- RFO/linear search
 Second derivative matrix not updated -- first step.
 ITU=  0
     Eigenvalues ---    0.01298   0.01366   0.01451   0.01542   0.01596
     Eigenvalues ---    0.01622   0.01659   0.01742   0.01774   0.01913
     Eigenvalues ---    0.01932   0.01952   0.02017   0.02068   0.02147
     Eigenvalues ---    0.16000   0.16000   0.16000   0.16000   0.16000
     Eigenvalues ---    0.16000   0.16000   0.16000   0.22000   0.22000
     Eigenvalues ---    0.22344   0.22817   0.24269   0.24707   0.34022
     Eigenvalues ---    0.34129   0.34129   0.34335   0.34375   0.35038
     Eigenvalues ---    0.37080   0.37230   0.37230   0.37230   0.37230
     Eigenvalues ---    0.38123   0.38531   0.38619   0.40136   0.42591
     Eigenvalues ---    0.44657   0.46138   0.49812
 RFO step:  Lambda=-2.85184630D-02 EMin= 1.29767074D-02
 Linear search not attempted -- first point.
 Iteration  1 RMS(Cart)=  0.04148354 RMS(Int)=  0.00039195
 Iteration  2 RMS(Cart)=  0.00040368 RMS(Int)=  0.00013373
 Iteration  3 RMS(Cart)=  0.00000017 RMS(Int)=  0.00013373
 ClnCor:  largest displacement from symmetrization is 2.08D-10 for atom    12.
 Variable       Old X    -DE/DX   Delta X   Delta X   Delta X     New X
                                 (Linear)    (Quad)   (Total)
    R1        2.73162  -0.02957   0.00000  -0.07435  -0.07411   2.65751
    R2        2.68302  -0.03667   0.00000  -0.08288  -0.08274   2.60028
    R3        2.02201   0.00884   0.00000   0.02205   0.02205   2.04406
    R4        2.67027  -0.03240   0.00000  -0.07084  -0.07074   2.59954
    R5        2.02201   0.00940   0.00000   0.02345   0.02345   2.04546
    R6        2.64950   0.00045   0.00000   0.00191   0.00180   2.65130
    R7        2.07292  -0.00742   0.00000  -0.02014  -0.02014   2.05279
    R8        2.74049  -0.02278   0.00000  -0.05044  -0.05081   2.68968
    R9        2.73286  -0.02102   0.00000  -0.04713  -0.04735   2.68551
   R10        2.63054   0.00935   0.00000   0.02061   0.02048   2.65102
   R11        2.77379  -0.03343   0.00000  -0.08805  -0.08795   2.68583
   R12        2.06769  -0.00547   0.00000  -0.01470  -0.01470   2.05299
   R13        2.58638  -0.00889   0.00000  -0.01499  -0.01509   2.57129
   R14        2.07113  -0.00703   0.00000  -0.01901  -0.01901   2.05212
   R15        2.73286  -0.02315   0.00000  -0.05706  -0.05693   2.67593
   R16        2.07113  -0.00742   0.00000  -0.02008  -0.02008   2.05106
   R17        2.74049  -0.06595   0.00000  -0.16402  -0.16379   2.57670
   R18        2.02201   0.00879   0.00000   0.02193   0.02193   2.04394
   R19        2.02201   0.00974   0.00000   0.02431   0.02431   2.04632
    A1        2.05463   0.01045   0.00000   0.03294   0.03327   2.08791
    A2        2.11428  -0.00501   0.00000  -0.01533  -0.01550   2.09878
    A3        2.11428  -0.00544   0.00000  -0.01761  -0.01778   2.09650
    A4        2.08803   0.00402   0.00000   0.00916   0.00946   2.09749
    A5        2.09758  -0.00162   0.00000  -0.00250  -0.00266   2.09492
    A6        2.09758  -0.00240   0.00000  -0.00666  -0.00681   2.09077
    A7        2.13102  -0.00360   0.00000  -0.01549  -0.01550   2.11552
    A8        2.07674   0.00228   0.00000   0.01030   0.01031   2.08705
    A9        2.07543   0.00132   0.00000   0.00519   0.00519   2.08062
   A10        2.09098  -0.00400   0.00000  -0.01115  -0.01132   2.07965
   A11        2.12624   0.00482   0.00000   0.00880   0.00922   2.13545
   A12        2.06597  -0.00082   0.00000   0.00235   0.00211   2.06808
   A13        2.06292  -0.00056   0.00000   0.00715   0.00677   2.06969
   A14        2.08784  -0.00036   0.00000  -0.00515  -0.00504   2.08280
   A15        2.13242   0.00091   0.00000  -0.00200  -0.00173   2.13069
   A16        2.13879  -0.00632   0.00000  -0.02261  -0.02268   2.11611
   A17        2.03996   0.00665   0.00000   0.02980   0.02983   2.06979
   A18        2.10444  -0.00033   0.00000  -0.00718  -0.00715   2.09729
   A19        2.12938  -0.00844   0.00000  -0.02341  -0.02380   2.10557
   A20        2.05832   0.00450   0.00000   0.01318   0.01338   2.07170
   A21        2.09549   0.00394   0.00000   0.01023   0.01042   2.10592
   A22        2.12938  -0.00516   0.00000  -0.01839  -0.01843   2.11094
   A23        2.09549   0.00139   0.00000   0.00288   0.00290   2.09840
   A24        2.05832   0.00377   0.00000   0.01551   0.01553   2.07385
   A25        2.06597   0.00875   0.00000   0.02813   0.02843   2.09440
   A26        2.10861  -0.00373   0.00000  -0.01065  -0.01080   2.09781
   A27        2.10861  -0.00502   0.00000  -0.01748  -0.01763   2.09098
   A28        2.08784   0.00602   0.00000   0.01647   0.01674   2.10458
   A29        2.09767  -0.00433   0.00000  -0.01526  -0.01539   2.08228
   A30        2.09767  -0.00169   0.00000  -0.00121  -0.00135   2.09633
    D1        0.00000   0.00000   0.00000  -0.00000   0.00000   0.00000
    D2        3.14159  -0.00000   0.00000   0.00000   0.00000   3.14159
    D3        3.14159  -0.00000   0.00000   0.00000   0.00000   3.14159
    D4        0.00000  -0.00000   0.00000   0.00000   0.00000   0.00000
    D5        0.00000   0.00000   0.00000   0.00000   0.00000   0.00000
    D6        3.14159  -0.00000   0.00000  -0.00000   0.00000   3.14159
    D7        3.14159   0.00000   0.00000   0.00000   0.00000   3.14159
    D8        0.00000   0.00000   0.00000  -0.00000   0.00000   0.00000
    D9        0.00000  -0.00000   0.00000  -0.00000   0.00000   0.00000
   D10        3.14159  -0.00000   0.00000  -0.00000   0.00000   3.14159
   D11        3.14159  -0.00000   0.00000  -0.00000   0.00000   3.14159
   D12        0.00000  -0.00000   0.00000  -0.00000   0.00000   0.00000
   D13        0.00000  -0.00000   0.00000  -0.00000   0.00000   0.00000
   D14        3.14159  -0.00000   0.00000  -0.00000   0.00000   3.14159
   D15        3.14159  -0.00000   0.00000  -0.00000   0.00000   3.14159
   D16        0.00000  -0.00000   0.00000  -0.00000   0.00000   0.00000
   D17        0.00000   0.00000   0.00000   0.00000   0.00000   0.00000
   D18        3.14159  -0.00000   0.00000  -0.00000   0.00000   3.14159
   D19        3.14159   0.00000   0.00000   0.00000   0.00000   3.14159
   D20        0.00000   0.00000   0.00000   0.00000   0.00000   0.00000
   D21        3.14159   0.00000   0.00000   0.00000   0.00000   3.14159
   D22        0.00000   0.00000   0.00000   0.00000   0.00000   0.00000
   D23        0.00000   0.00000   0.00000  -0.00000   0.00000   0.00000
   D24        3.14159  -0.00000   0.00000  -0.00000   0.00000   3.14159
   D25        0.00000   0.00000   0.00000   0.00000   0.00000   0.00000
   D26        3.14159  -0.00000   0.00000   0.00000   0.00000   3.14159
   D27        3.14159   0.00000   0.00000   0.00000   0.00000   3.14159
   D28        0.00000   0.00000   0.00000   0.00000   0.00000   0.00000
   D29        0.00000  -0.00000   0.00000  -0.00000   0.00000   0.00000
   D30        3.14159  -0.00000   0.00000  -0.00000   0.00000   3.14159
   D31        3.14159  -0.00000   0.00000  -0.00000   0.00000   3.14159
   D32        0.00000  -0.00000   0.00000  -0.00000   0.00000   0.00000
   D33        0.00000  -0.00000   0.00000  -0.00000   0.00000   0.00000
   D34        3.14159  -0.00000   0.00000  -0.00000   0.00000   3.14159
   D35        3.14159   0.00000   0.00000   0.00000   0.00000   3.14159
   D36        0.00000  -0.00000   0.00000  -0.00000   0.00000   0.00000
   D37        0.00000   0.00000   0.00000  -0.00000   0.00000   0.00000
   D38        3.14159  -0.00000   0.00000  -0.00000   0.00000   3.14159
   D39        3.14159   0.00000   0.00000   0.00000   0.00000   3.14159
   D40        0.00000   0.00000   0.00000   0.00000   0.00000   0.00000
   D41        0.00000   0.00000   0.00000   0.00000   0.00000   0.00000
   D42        3.14159  -0.00000   0.00000   0.00000   0.00000   3.14159
   D43        3.14159   0.00000   0.00000   0.00000   0.00000   3.14159
   D44        0.00000   0.00000   0.00000  -0.00000   0.00000   0.00000
         Item               Value     Threshold  Converged?
 Maximum Force            0.065950     0.000450     NO 
 RMS     Force            0.011161     0.000300     NO 
 Maximum Displacement     0.146388     0.001800     NO 
 RMS     Displacement     0.041696     0.001200     NO 
 Predicted change in Energy=-1.528523D-02
 GradGradGradGradGradGradGradGradGradGradGradGradGradGradGradGradGradGrad

                          Input orientation:                          
 ---------------------------------------------------------------------
 Center     Atomic      Atomic             Coordinates (Angstroms)
 Number     Number       Type             X           Y           Z
 ---------------------------------------------------------------------
      1          6           0        3.541912    6.259406    0.000000
      2          6           0        2.842624    5.039300    0.000000
      3          6           0        2.842437    7.444368    0.000000
      4          6           0        1.439519    7.460457    0.000000
      5          6           0        0.731897    6.225503    0.000000
      6          6           0        1.467035    5.030688    0.000000
      7          6           0        0.692862    8.669611    0.000000
      8          6           0       -0.667575    8.644556    0.000000
      9          6           0       -1.373303    7.416909    0.000000
     10          6           0       -0.689335    6.237328    0.000000
     11          1           0       -1.231192    9.572117    0.000000
     12          1           0        1.229335    9.613778    0.000000
     13          1           0        3.383409    8.386371    0.000000
     14          1           0        0.953133    4.073525    0.000000
     15          1           0       -2.454893    7.411197    0.000000
     16          1           0       -1.227204    5.297490    0.000000
     17          1           0        3.386298    4.103335    0.000000
     18          1           0        4.623550    6.267573    0.000000
 ---------------------------------------------------------------------
                    Distance matrix (angstroms):
                    1          2          3          4          5
     1  C    0.000000
     2  C    1.406294   0.000000
     3  C    1.376009   2.405068   0.000000
     4  C    2.421276   2.798339   1.403010   0.000000
     5  C    2.810219   2.421207   2.437214   1.423320   0.000000
     6  C    2.411402   1.375616   2.778053   2.429924   1.402858
     7  C    3.731779   4.219080   2.474246   1.421109   2.444420
     8  C    4.838256   5.031835   3.709532   2.417010   2.794698
     9  C    5.049668   4.840151   4.215829   2.813159   2.418949
    10  C    4.231305   3.729612   3.732340   2.455212   1.421282
    11  H    5.810042   6.094458   4.595843   3.404675   3.879890
    12  H    4.074288   4.850623   2.703412   2.163555   3.424595
    13  H    2.132863   3.390477   1.086288   2.153144   3.420507
    14  H    3.388193   2.122003   3.864202   3.421678   2.163321
    15  H    6.106414   5.804273   5.297434   3.894724   3.400221
    16  H    4.865157   4.078010   4.601203   3.433633   2.167784
    17  H    2.161679   1.082410   3.385009   3.880749   3.398447
    18  H    1.081669   2.163412   2.134763   3.400151   3.891880
                    6          7          8          9         10
     6  C    0.000000
     7  C    3.720363   0.000000
     8  C    4.197213   1.360667   0.000000
     9  C    3.709659   2.416257   1.416040   0.000000
    10  C    2.471014   2.797583   2.407327   1.363533   0.000000
    11  H    5.282519   2.125207   1.085373   2.159889   3.378525
    12  H    4.589250   1.085935   2.130178   3.405871   3.883518
    13  H    3.864337   2.705415   4.059203   4.854500   4.604958
    14  H    1.086397   4.603450   4.849848   4.073147   2.716569
    15  H    4.587847   3.389980   2.171562   1.081606   2.120180
    16  H    2.707418   3.880445   3.393529   2.124448   1.082866
    17  H    2.131561   5.301459   6.087411   5.799446   4.600512
    18  H    3.390202   4.606528   5.800522   6.105999   5.312972
                   11         12         13         14         15
    11  H    0.000000
    12  H    2.460880   0.000000
    13  H    4.764509   2.479226   0.000000
    14  H    5.916570   5.547134   4.950443   0.000000
    15  H    2.483349   4.292423   5.919184   4.770189   0.000000
    16  H    4.274629   4.966380   5.549680   2.500393   2.444377
    17  H    7.157430   5.917556   4.283037   2.433348   6.712784
    18  H    6.722948   4.766318   2.455047   4.276191   7.170233
                   16         17         18
    16  H    0.000000
    17  H    4.765544   0.000000
    18  H    5.930632   2.492933   0.000000
 Stoichiometry    C10H8
 Framework group  CS[SG(C10H8)]
 Deg. of freedom    33
 Full point group                 CS      NOp   2
 Largest Abelian subgroup         CS      NOp   2
 Largest concise Abelian subgroup C1      NOp   1
                         Standard orientation:                         
 ---------------------------------------------------------------------
 Center     Atomic      Atomic             Coordinates (Angstroms)
 Number     Number       Type             X           Y           Z
 ---------------------------------------------------------------------
      1          6           0       -2.425901   -0.708710   -0.000000
      2          6           0       -2.421176    0.697575   -0.000000
      3          6           0       -1.232097   -1.392985   -0.000000
      4          6           0       -0.004630   -0.713454    0.000000
      5          6           0        0.000000    0.709858   -0.000000
      6          6           0       -1.229676    1.385067   -0.000000
      7          6           0        1.242148   -1.395435    0.000000
      8          6           0        2.412349   -0.701139    0.000000
      9          6           0        2.418944    0.714885    0.000000
     10          6           0        1.241280    1.402148    0.000000
     11          1           0        3.360813   -1.228823    0.000000
     12          1           0        1.242546   -2.481369    0.000000
     13          1           0       -1.236680   -2.479263   -0.000000
     14          1           0       -1.256119    2.471142   -0.000000
     15          1           0        3.356314    1.254522    0.000000
     16          1           0        1.244236    2.485010    0.000000
     17          1           0       -3.356459    1.242422   -0.000000
     18          1           0       -3.362099   -1.250505   -0.000000
 ---------------------------------------------------------------------
 Rotational constants (GHZ):           3.1521092           1.2444190           0.8921914
 Standard basis: 6-311++G(d,p) (5D, 7F)
 There are   218 symmetry adapted cartesian basis functions of A'  symmetry.
 There are    68 symmetry adapted cartesian basis functions of A"  symmetry.
 There are   208 symmetry adapted basis functions of A'  symmetry.
 There are    68 symmetry adapted basis functions of A"  symmetry.
   276 basis functions,   432 primitive gaussians,   286 cartesian basis functions
    34 alpha electrons       34 beta electrons
       nuclear repulsion energy       459.7343976074 Hartrees.
 NAtoms=   18 NActive=   18 NUniq=   18 SFac= 1.00D+00 NAtFMM=   60 NAOKFM=F Big=F
 Integral buffers will be    131072 words long.
 Raffenetti 2 integral format.
 Two-electron integral symmetry is turned on.
 Nuclear repulsion after empirical dispersion term =      459.7252700299 Hartrees.
 One-electron integrals computed using PRISM.
 PrsmSu:  requested number of processors reduced to:  29 ShMem   1 Linda.
 NBasis=   276 RedAO= T EigKep=  1.57D-06  NBF=   208    68
 NBsUse=   274 1.00D-06 EigRej=  6.52D-07 NBFU=   206    68
 Initial guess from the checkpoint file:  "Naphthalene.chk"
 B after Tr=    -0.000000    0.000000   -0.000000
         Rot=    0.864104    0.000000    0.000000    0.503313 Ang=  60.44 deg.
 Initial guess orbital symmetries:
       Occupied  (A') (A') (A') (A') (A') (A') (A') (A') (A') (A')
                 (A') (A') (A') (A') (A') (A') (A') (A') (A') (A')
                 (A') (A') (A') (A') (A') (A') (A") (A') (A') (A')
                 (A") (A") (A") (A")
       Virtual   (A") (A") (A') (A') (A') (A') (A') (A") (A') (A')
                 (A') (A") (A') (A") (A") (A") (A') (A') (A') (A')
                 (A') (A') (A') (A') (A') (A") (A") (A') (A") (A")
                 (A') (A") (A') (A') (A') (A') (A') (A') (A") (A")
                 (A') (A") (A') (A') (A') (A') (A') (A') (A') (A')
                 (A') (A') (A') (A') (A') (A') (A') (A') (A') (A')
                 (A') (A') (A') (A') (A') (A') (A') (A') (A') (A')
                 (A") (A') (A') (A") (A') (A') (A") (A') (A") (A')
                 (A") (A') (A') (A") (A") (A") (A') (A') (A") (A')
                 (A') (A') (A") (A') (A') (A') (A') (A') (A') (A')
                 (A') (A') (A') (A') (A') (A') (A') (A') (A') (A")
                 (A') (A") (A') (A') (A") (A") (A") (A') (A') (A")
                 (A") (A') (A") (A") (A') (A') (A') (A') (A') (A')
                 (A') (A") (A') (A') (A") (A") (A") (A') (A') (A")
                 (A') (A') (A') (A') (A') (A") (A") (A') (A") (A")
                 (A') (A') (A") (A') (A") (A') (A') (A") (A') (A')
                 (A") (A') (A') (A') (A") (A') (A') (A") (A') (A")
                 (A") (A') (A') (A") (A") (A') (A') (A') (A') (A')
                 (A') (A') (A') (A') (A") (A') (A") (A') (A') (A')
                 (A') (A') (A') (A') (A') (A') (A") (A') (A") (A")
                 (A') (A") (A") (A") (A') (A') (A") (A") (A') (A')
                 (A') (A') (A') (A') (A') (A') (A') (A') (A') (A')
                 (A') (A') (A') (A') (A') (A') (A') (A') (A') (A')
                 (A') (A') (A') (A') (A') (A') (A') (A') (A') (A')
 ExpMin= 3.60D-02 ExpMax= 4.56D+03 ExpMxC= 6.82D+02 IAcc=3 IRadAn=         5 AccDes= 0.00D+00
 Harris functional with IExCor= 4639 and IRadAn=       5 diagonalized for initial guess.
 HarFok:  IExCor= 4639 AccDes= 0.00D+00 IRadAn=         5 IDoV= 1 UseB2=F ITyADJ=14
 ICtDFT=  3500011 ScaDFX=  1.000000  1.000000  1.000000  1.000000
 FoFCou: FMM=F IPFlag=           0 FMFlag=      100000 FMFlg1=           0
         NFxFlg=           0 DoJE=T BraDBF=F KetDBF=T FulRan=T
         wScrn=  0.000000 ICntrl=       500 IOpCl=  0 I1Cent=   200000004 NGrid=           0
         NMat0=    1 NMatS0=      1 NMatT0=    0 NMatD0=    1 NMtDS0=    0 NMtDT0=    0
 Petite list used in FoFCou.
 Requested convergence on RMS density matrix=1.00D-08 within 128 cycles.
 Requested convergence on MAX density matrix=1.00D-06.
 Requested convergence on             energy=1.00D-06.
 No special actions if energy rises.
 SCF Done:  E(RwB97XD) =  -385.842676266     A.U. after   14 cycles
            NFock= 14  Conv=0.67D-08     -V/T= 2.0042
 PrsmSu:  requested number of processors reduced to:  29 ShMem   1 Linda.
 Calling FoFJK, ICntrl=      2127 FMM=F ISym2X=1 I1Cent= 0 IOpClX= 0 NMat=1 NMatS=1 NMatT=0.
 ***** Axes restored to original set *****
 -------------------------------------------------------------------
 Center     Atomic                   Forces (Hartrees/Bohr)
 Number     Number              X              Y              Z
 -------------------------------------------------------------------
      1        6          -0.004379472    0.004904980    0.000000000
      2        6          -0.004265612   -0.000201320    0.000000000
      3        6           0.013084956   -0.001751461   -0.000000000
      4        6          -0.010186638   -0.000348639    0.000000000
      5        6          -0.003093127    0.005000940    0.000000000
      6        6           0.009764928   -0.011347606   -0.000000000
      7        6           0.005210846   -0.000136912   -0.000000000
      8        6          -0.008118595    0.003095809    0.000000000
      9        6           0.002103311    0.000456772   -0.000000000
     10        6           0.001587384    0.000620782   -0.000000000
     11        1           0.000918036   -0.000007123   -0.000000000
     12        1          -0.000460132   -0.000239360    0.000000000
     13        1          -0.001011304    0.000089147    0.000000000
     14        1          -0.002150270    0.001740951    0.000000000
     15        1          -0.001695127    0.001255234    0.000000000
     16        1           0.000293605   -0.002020079   -0.000000000
     17        1           0.000837637   -0.000922695   -0.000000000
     18        1           0.001559574   -0.000189421   -0.000000000
 -------------------------------------------------------------------
 Cartesian Forces:  Max     0.013084956 RMS     0.003679235

 GradGradGradGradGradGradGradGradGradGradGradGradGradGradGradGradGradGrad
 Berny optimization.
 Using GEDIIS/GDIIS optimizer.
 FormGI is forming the generalized inverse of G from B-inverse, IUseBI=4.
 Internal  Forces:  Max     0.008948574 RMS     0.001763961
 Search for a local minimum.
 Step number   2 out of a maximum of  103
 All quantities printed in internal units (Hartrees-Bohrs-Radians)
 Mixed Optimization -- RFO/linear search
 Update second derivatives using D2CorX and points    1    2
 DE= -1.51D-02 DEPred=-1.53D-02 R= 9.91D-01
 TightC=F SS=  1.41D+00  RLast= 2.67D-01 DXNew= 5.0454D-01 8.0073D-01
 Trust test= 9.91D-01 RLast= 2.67D-01 DXMaxT set to 5.05D-01
 ITU=  1  0
 Use linear search instead of GDIIS.
     Eigenvalues ---    0.01299   0.01366   0.01452   0.01543   0.01597
     Eigenvalues ---    0.01621   0.01659   0.01741   0.01769   0.01910
     Eigenvalues ---    0.01925   0.01952   0.02014   0.02065   0.02145
     Eigenvalues ---    0.15813   0.16000   0.16000   0.16000   0.16000
     Eigenvalues ---    0.16000   0.16000   0.16013   0.21832   0.22001
     Eigenvalues ---    0.22237   0.22799   0.24112   0.24704   0.33996
     Eigenvalues ---    0.34095   0.34129   0.34242   0.34319   0.35143
     Eigenvalues ---    0.36788   0.37100   0.37230   0.37230   0.37231
     Eigenvalues ---    0.38169   0.38568   0.39731   0.40053   0.41932
     Eigenvalues ---    0.45019   0.47902   0.51736
 RFO step:  Lambda=-8.25483926D-04 EMin= 1.29857688D-02
 Quartic linear search produced a step of  0.00963.
 Iteration  1 RMS(Cart)=  0.00583164 RMS(Int)=  0.00002976
 Iteration  2 RMS(Cart)=  0.00003490 RMS(Int)=  0.00000610
 Iteration  3 RMS(Cart)=  0.00000000 RMS(Int)=  0.00000610
 ClnCor:  largest displacement from symmetrization is 3.60D-09 for atom    18.
 Variable       Old X    -DE/DX   Delta X   Delta X   Delta X     New X
                                 (Linear)    (Quad)   (Total)
    R1        2.65751   0.00315  -0.00071   0.00629   0.00559   2.66310
    R2        2.60028  -0.00307  -0.00080  -0.00903  -0.00982   2.59046
    R3        2.04406   0.00156   0.00021   0.00457   0.00478   2.04884
    R4        2.59954  -0.00271  -0.00068  -0.00766  -0.00834   2.59120
    R5        2.04546   0.00122   0.00023   0.00367   0.00390   2.04936
    R6        2.65130   0.00855   0.00002   0.01927   0.01928   2.67059
    R7        2.05279  -0.00043  -0.00019  -0.00158  -0.00177   2.05101
    R8        2.68968  -0.00029  -0.00049  -0.00112  -0.00163   2.68806
    R9        2.68551   0.00108  -0.00046   0.00220   0.00174   2.68724
   R10        2.65102   0.00895   0.00020   0.01990   0.02009   2.67111
   R11        2.68583   0.00006  -0.00085  -0.00165  -0.00250   2.68334
   R12        2.05299  -0.00052  -0.00014  -0.00175  -0.00189   2.05110
   R13        2.57129   0.00484  -0.00015   0.00956   0.00942   2.58070
   R14        2.05212  -0.00044  -0.00018  -0.00159  -0.00177   2.05035
   R15        2.67593   0.00015  -0.00055  -0.00028  -0.00082   2.67511
   R16        2.05106  -0.00048  -0.00019  -0.00174  -0.00193   2.04912
   R17        2.57670   0.00375  -0.00158   0.00713   0.00556   2.58226
   R18        2.04394   0.00169   0.00021   0.00492   0.00513   2.04907
   R19        2.04632   0.00161   0.00023   0.00474   0.00497   2.05129
    A1        2.08791   0.00239   0.00032   0.00934   0.00967   2.09758
    A2        2.09878  -0.00140  -0.00015  -0.00594  -0.00610   2.09268
    A3        2.09650  -0.00099  -0.00017  -0.00339  -0.00357   2.09292
    A4        2.09749   0.00059   0.00009   0.00107   0.00118   2.09867
    A5        2.09492  -0.00056  -0.00003  -0.00219  -0.00222   2.09270
    A6        2.09077  -0.00003  -0.00007   0.00111   0.00104   2.09181
    A7        2.11552  -0.00106  -0.00015  -0.00546  -0.00562   2.10989
    A8        2.08705   0.00148   0.00010   0.00870   0.00881   2.09585
    A9        2.08062  -0.00041   0.00005  -0.00324  -0.00318   2.07744
   A10        2.07965  -0.00123  -0.00011  -0.00367  -0.00379   2.07586
   A11        2.13545  -0.00037   0.00009  -0.00213  -0.00202   2.13344
   A12        2.06808   0.00160   0.00002   0.00580   0.00581   2.07389
   A13        2.06969   0.00073   0.00007   0.00523   0.00529   2.07498
   A14        2.08280  -0.00142  -0.00005  -0.00748  -0.00753   2.07527
   A15        2.13069   0.00069  -0.00002   0.00224   0.00224   2.13293
   A16        2.11611  -0.00142  -0.00022  -0.00651  -0.00673   2.10938
   A17        2.06979   0.00350   0.00029   0.02101   0.02129   2.09108
   A18        2.09729  -0.00208  -0.00007  -0.01449  -0.01456   2.08272
   A19        2.10557   0.00056  -0.00023   0.00342   0.00318   2.10875
   A20        2.07170   0.00001   0.00013   0.00013   0.00026   2.07195
   A21        2.10592  -0.00057   0.00010  -0.00354  -0.00344   2.10248
   A22        2.11094  -0.00264  -0.00018  -0.01094  -0.01111   2.09984
   A23        2.09840   0.00052   0.00003   0.00036   0.00039   2.09878
   A24        2.07385   0.00212   0.00015   0.01057   0.01072   2.08457
   A25        2.09440   0.00091   0.00027   0.00505   0.00534   2.09974
   A26        2.09781  -0.00175  -0.00010  -0.01059  -0.01070   2.08711
   A27        2.09098   0.00084  -0.00017   0.00554   0.00536   2.09634
   A28        2.10458   0.00099   0.00016   0.00414   0.00430   2.10888
   A29        2.08228  -0.00178  -0.00015  -0.01024  -0.01039   2.07189
   A30        2.09633   0.00079  -0.00001   0.00610   0.00609   2.10241
    D1        0.00000  -0.00000   0.00000   0.00000  -0.00000   0.00000
    D2        3.14159  -0.00000   0.00000  -0.00000   0.00000   3.14159
    D3        3.14159   0.00000   0.00000   0.00000   0.00000   3.14159
    D4       -0.00000  -0.00000   0.00000  -0.00000   0.00000   0.00000
    D5       -0.00000   0.00000   0.00000  -0.00000   0.00000   0.00000
    D6        3.14159   0.00000   0.00000  -0.00000   0.00000   3.14159
    D7        3.14159   0.00000   0.00000  -0.00000   0.00000   3.14159
    D8        0.00000  -0.00000   0.00000  -0.00000  -0.00000   0.00000
    D9       -0.00000  -0.00000   0.00000  -0.00000   0.00000   0.00000
   D10        3.14159   0.00000   0.00000   0.00000   0.00000   3.14159
   D11        3.14159  -0.00000   0.00000   0.00000   0.00000   3.14159
   D12        0.00000   0.00000   0.00000   0.00000   0.00000   0.00000
   D13        0.00000  -0.00000   0.00000  -0.00000   0.00000   0.00000
   D14        3.14159  -0.00000   0.00000  -0.00000   0.00000   3.14159
   D15        3.14159  -0.00000   0.00000  -0.00000   0.00000   3.14159
   D16       -0.00000  -0.00000   0.00000  -0.00000   0.00000   0.00000
   D17       -0.00000   0.00000   0.00000   0.00000   0.00000   0.00000
   D18        3.14159  -0.00000   0.00000  -0.00000   0.00000   3.14159
   D19        3.14159   0.00000   0.00000   0.00000   0.00000   3.14159
   D20        0.00000  -0.00000   0.00000   0.00000   0.00000   0.00000
   D21        3.14159   0.00000   0.00000   0.00000   0.00000   3.14159
   D22        0.00000   0.00000   0.00000   0.00000   0.00000   0.00000
   D23       -0.00000   0.00000   0.00000   0.00000   0.00000   0.00000
   D24        3.14159  -0.00000   0.00000  -0.00000   0.00000   3.14159
   D25        0.00000   0.00000   0.00000  -0.00000   0.00000   0.00000
   D26        3.14159   0.00000   0.00000  -0.00000   0.00000   3.14159
   D27        3.14159   0.00000   0.00000   0.00000   0.00000   3.14159
   D28        0.00000   0.00000   0.00000  -0.00000  -0.00000   0.00000
   D29        0.00000   0.00000   0.00000  -0.00000  -0.00000   0.00000
   D30        3.14159  -0.00000   0.00000  -0.00000   0.00000   3.14159
   D31        3.14159  -0.00000   0.00000  -0.00000   0.00000   3.14159
   D32       -0.00000  -0.00000   0.00000  -0.00000   0.00000   0.00000
   D33        0.00000  -0.00000   0.00000  -0.00000  -0.00000   0.00000
   D34        3.14159  -0.00000   0.00000  -0.00000   0.00000   3.14159
   D35        3.14159   0.00000   0.00000  -0.00000   0.00000   3.14159
   D36       -0.00000  -0.00000   0.00000  -0.00000   0.00000   0.00000
   D37       -0.00000   0.00000   0.00000   0.00000   0.00000   0.00000
   D38        3.14159  -0.00000   0.00000  -0.00000   0.00000   3.14159
   D39        3.14159   0.00000   0.00000   0.00000   0.00000   3.14159
   D40        0.00000  -0.00000   0.00000  -0.00000  -0.00000   0.00000
   D41       -0.00000  -0.00000   0.00000  -0.00000   0.00000   0.00000
   D42        3.14159  -0.00000   0.00000   0.00000   0.00000   3.14159
   D43        3.14159   0.00000   0.00000   0.00000   0.00000   3.14159
   D44        0.00000   0.00000   0.00000   0.00000   0.00000   0.00000
         Item               Value     Threshold  Converged?
 Maximum Force            0.008949     0.000450     NO 
 RMS     Force            0.001764     0.000300     NO 
 Maximum Displacement     0.023878     0.001800     NO 
 RMS     Displacement     0.005824     0.001200     NO 
 Predicted change in Energy=-4.174326D-04
 GradGradGradGradGradGradGradGradGradGradGradGradGradGradGradGradGradGrad

                          Input orientation:                          
 ---------------------------------------------------------------------
 Center     Atomic      Atomic             Coordinates (Angstroms)
 Number     Number       Type             X           Y           Z
 ---------------------------------------------------------------------
      1          6           0        3.539178    6.260727   -0.000000
      2          6           0        2.844218    5.034752   -0.000000
      3          6           0        2.848182    7.444641   -0.000000
      4          6           0        1.435049    7.459882   -0.000000
      5          6           0        0.733385    6.222522   -0.000000
      6          6           0        1.473116    5.018053   -0.000000
      7          6           0        0.689526    8.670814    0.000000
      8          6           0       -0.675992    8.651836    0.000000
      9          6           0       -1.373403    7.419943    0.000000
     10          6           0       -0.686484    6.238674    0.000000
     11          1           0       -1.235244    9.580841    0.000000
     12          1           0        1.226553    9.613589    0.000000
     13          1           0        3.385043    8.387914   -0.000000
     14          1           0        0.945045    4.069777   -0.000000
     15          1           0       -2.457723    7.418678    0.000000
     16          1           0       -1.218734    5.292622    0.000000
     17          1           0        3.395439    4.100815   -0.000000
     18          1           0        4.623356    6.267433   -0.000000
 ---------------------------------------------------------------------
                    Distance matrix (angstroms):
                    1          2          3          4          5
     1  C    0.000000
     2  C    1.409249   0.000000
     3  C    1.370813   2.409892   0.000000
     4  C    2.421844   2.804819   1.413214   0.000000
     5  C    2.806053   2.422069   2.442527   1.422460   0.000000
     6  C    2.410986   1.371204   2.789110   2.442126   1.413488
     7  C    3.732162   4.226540   2.482598   1.422027   2.448684
     8  C    4.846138   5.047294   3.725200   2.424304   2.808542
     9  C    5.047497   4.845355   4.221657   2.808736   2.423297
    10  C    4.225719   3.730320   3.734731   2.447908   1.419960
    11  H    5.815347   6.108104   4.608439   3.410122   3.892789
    12  H    4.073072   4.856191   2.708139   2.163776   3.426740
    13  H    2.132763   3.396496   1.085349   2.159564   3.423479
    14  H    3.395554   2.130267   3.874485   3.425334   2.163126
    15  H    6.107673   5.813233   5.305968   3.892990   3.407925
    16  H    4.855404   4.071127   4.601194   3.426307   2.162286
    17  H    2.164689   1.084473   3.388312   3.889274   3.404141
    18  H    1.084199   2.164448   2.130038   3.404003   3.890231
                    6          7          8          9         10
     6  C    0.000000
     7  C    3.735863   0.000000
     8  C    4.221735   1.365650   0.000000
     9  C    3.724479   2.412541   1.415607   0.000000
    10  C    2.480683   2.794406   2.413185   1.366475   0.000000
    11  H    5.306058   2.129058   1.084349   2.165310   3.386919
    12  H    4.602146   1.084999   2.131817   3.401742   3.879402
    13  H    3.874458   2.710322   4.069602   4.855901   4.603972
    14  H    1.085397   4.608126   4.860353   4.074164   2.714038
    15  H    4.605919   3.387185   2.166851   1.084321   2.128308
    16  H    2.705816   3.879901   3.402776   2.132936   1.085497
    17  H    2.129941   5.311012   6.106418   5.810203   4.607877
    18  H    3.388948   4.609909   5.811064   6.106505   5.309918
                   11         12         13         14         15
    11  H    0.000000
    12  H    2.462014   0.000000
    13  H    4.771805   2.482209   0.000000
    14  H    5.926676   5.550955   4.959828   0.000000
    15  H    2.483829   4.288534   5.922612   4.774302   0.000000
    16  H    4.288251   4.964895   5.547575   2.485415   2.460733
    17  H    7.174532   5.924081   4.287111   2.450590   6.728128
    18  H    6.730666   4.768127   2.455577   4.284818   7.174053
                   16         17         18
    16  H    0.000000
    17  H    4.765605   0.000000
    18  H    5.922860   2.490385   0.000000
 Stoichiometry    C10H8
 Framework group  CS[SG(C10H8)]
 Deg. of freedom    33
 Full point group                 CS      NOp   2
 Largest Abelian subgroup         CS      NOp   2
 Largest concise Abelian subgroup C1      NOp   1
                         Standard orientation:                         
 ---------------------------------------------------------------------
 Center     Atomic      Atomic             Coordinates (Angstroms)
 Number     Number       Type             X           Y           Z
 ---------------------------------------------------------------------
      1          6           0       -2.421844   -0.711964    0.000000
      2          6           0       -2.425533    0.697281    0.000000
      3          6           0       -1.235075   -1.398045    0.000000
      4          6           0        0.000000   -0.711194   -0.000000
      5          6           0       -0.003504    0.711261    0.000000
      6          6           0       -1.242790    1.391054    0.000000
      7          6           0        1.247519   -1.393732   -0.000000
      8          6           0        2.424282   -0.700746   -0.000000
      9          6           0        2.419790    0.714854   -0.000000
     10          6           0        1.237874    1.400658   -0.000000
     11          1           0        3.370324   -1.230668   -0.000000
     12          1           0        1.248095   -2.478731   -0.000000
     13          1           0       -1.234109   -2.483394    0.000000
     14          1           0       -1.253871    2.476394    0.000000
     15          1           0        3.361064    1.253144   -0.000000
     16          1           0        1.231525    2.486137   -0.000000
     17          1           0       -3.367041    1.235466    0.000000
     18          1           0       -3.360299   -1.254910    0.000000
 ---------------------------------------------------------------------
 Rotational constants (GHZ):           3.1456668           1.2400891           0.8894492
 Standard basis: 6-311++G(d,p) (5D, 7F)
 There are   218 symmetry adapted cartesian basis functions of A'  symmetry.
 There are    68 symmetry adapted cartesian basis functions of A"  symmetry.
 There are   208 symmetry adapted basis functions of A'  symmetry.
 There are    68 symmetry adapted basis functions of A"  symmetry.
   276 basis functions,   432 primitive gaussians,   286 cartesian basis functions
    34 alpha electrons       34 beta electrons
       nuclear repulsion energy       459.1145195004 Hartrees.
 NAtoms=   18 NActive=   18 NUniq=   18 SFac= 1.00D+00 NAtFMM=   60 NAOKFM=F Big=F
 Integral buffers will be    131072 words long.
 Raffenetti 2 integral format.
 Two-electron integral symmetry is turned on.
 Nuclear repulsion after empirical dispersion term =      459.1054033386 Hartrees.
 One-electron integrals computed using PRISM.
 PrsmSu:  requested number of processors reduced to:  29 ShMem   1 Linda.
 NBasis=   276 RedAO= T EigKep=  1.57D-06  NBF=   208    68
 NBsUse=   274 1.00D-06 EigRej=  6.71D-07 NBFU=   206    68
 Initial guess from the checkpoint file:  "Naphthalene.chk"
 B after Tr=     0.000000   -0.000000    0.000000
         Rot=    1.000000    0.000000    0.000000   -0.000653 Ang=  -0.07 deg.
 Initial guess orbital symmetries:
       Occupied  (A') (A') (A') (A') (A') (A') (A') (A') (A') (A')
                 (A') (A') (A') (A') (A') (A') (A') (A') (A') (A')
                 (A') (A') (A') (A') (A') (A") (A') (A') (A') (A")
                 (A') (A") (A") (A")
       Virtual   (A") (A') (A") (A') (A') (A') (A') (A") (A') (A')
                 (A') (A") (A') (A") (A") (A') (A") (A') (A') (A')
                 (A') (A') (A') (A') (A') (A") (A") (A') (A") (A")
                 (A') (A") (A') (A') (A') (A') (A') (A') (A") (A")
                 (A') (A') (A') (A") (A') (A') (A') (A') (A') (A')
                 (A') (A') (A') (A') (A') (A') (A') (A') (A') (A')
                 (A') (A') (A') (A') (A') (A') (A') (A') (A') (A')
                 (A") (A") (A') (A') (A') (A') (A") (A") (A') (A")
                 (A') (A') (A') (A") (A") (A") (A') (A') (A") (A')
                 (A') (A") (A') (A') (A') (A') (A') (A') (A') (A')
                 (A') (A') (A') (A') (A') (A') (A') (A") (A') (A')
                 (A') (A") (A') (A') (A") (A") (A") (A') (A') (A")
                 (A") (A') (A") (A") (A') (A') (A') (A') (A') (A')
                 (A') (A") (A') (A") (A') (A") (A") (A') (A") (A')
                 (A') (A') (A') (A') (A") (A') (A") (A") (A") (A')
                 (A') (A') (A") (A') (A") (A') (A') (A") (A') (A")
                 (A') (A') (A') (A') (A") (A') (A') (A') (A") (A")
                 (A") (A') (A') (A") (A") (A') (A') (A') (A') (A')
                 (A') (A') (A') (A") (A') (A") (A') (A') (A') (A')
                 (A') (A') (A') (A') (A') (A') (A") (A") (A") (A')
                 (A') (A") (A") (A") (A') (A') (A") (A") (A') (A')
                 (A') (A') (A') (A') (A') (A') (A') (A') (A') (A')
                 (A') (A') (A') (A') (A') (A') (A') (A') (A') (A')
                 (A') (A') (A') (A') (A') (A') (A') (A') (A') (A')
 ExpMin= 3.60D-02 ExpMax= 4.56D+03 ExpMxC= 6.82D+02 IAcc=3 IRadAn=         5 AccDes= 0.00D+00
 Harris functional with IExCor= 4639 and IRadAn=       5 diagonalized for initial guess.
 HarFok:  IExCor= 4639 AccDes= 0.00D+00 IRadAn=         5 IDoV= 1 UseB2=F ITyADJ=14
 ICtDFT=  3500011 ScaDFX=  1.000000  1.000000  1.000000  1.000000
 FoFCou: FMM=F IPFlag=           0 FMFlag=      100000 FMFlg1=           0
         NFxFlg=           0 DoJE=T BraDBF=F KetDBF=T FulRan=T
         wScrn=  0.000000 ICntrl=       500 IOpCl=  0 I1Cent=   200000004 NGrid=           0
         NMat0=    1 NMatS0=      1 NMatT0=    0 NMatD0=    1 NMtDS0=    0 NMtDT0=    0
 Petite list used in FoFCou.
 Requested convergence on RMS density matrix=1.00D-08 within 128 cycles.
 Requested convergence on MAX density matrix=1.00D-06.
 Requested convergence on             energy=1.00D-06.
 No special actions if energy rises.
 SCF Done:  E(RwB97XD) =  -385.843188408     A.U. after   13 cycles
            NFock= 13  Conv=0.22D-08     -V/T= 2.0043
 PrsmSu:  requested number of processors reduced to:  29 ShMem   1 Linda.
[...]
   x          0.000000D+00      0.000000D+00      0.000000D+00
   y          0.000000D+00      0.000000D+00      0.000000D+00
   z          0.217330D-03      0.552399D-03      0.184260D-02

 Dipole polarizability, Alpha (dipole orientation).
 (esu units = cm**3 , SI units = C**2 m**2 J**-1)
 Alpha(0;0):
               (au)            (10**-24 esu)      (10**-40 SI)
   iso        0.113599D+03      0.168336D+02      0.187299D+02
   aniso      0.874320D+02      0.129561D+02      0.144156D+02
   xx         0.958514D+02      0.142037D+02      0.158038D+02
   yx        -0.453755D+02     -0.672395D+01     -0.748141D+01
   yy         0.120284D+03      0.178243D+02      0.198322D+02
   zx         0.958250D+01      0.141998D+01      0.157994D+01
   zy        -0.125036D+02     -0.185285D+01     -0.206157D+01
   zz         0.124661D+03      0.184729D+02      0.205538D+02

 ----------------------------------------------------------------------
 1\1\GINC-BC11916\Freq\RwB97XD\6-311++G(d,p)\C10H8\HPHAM196\09-Aug-2022
 \0\\#N Geom=AllCheck Guess=TCheck SCRF=Check GenChk RwB97XD/6-311++G(d
 ,p) Freq\\sixmember-4.cdx\\0,1\C,3.5394398842,6.2632287315,0.\C,2.8432
 188683,5.0330144119,0.\C,2.851112689,7.4458724914,0.\C,1.4326088594,7.
 4598113848,0.\C,0.7330702675,6.2236129882,0.\C,1.4750005737,5.01459405
 23,0.\C,0.6905186144,8.6689526062,0.\C,-0.6775553504,8.6509823747,0.\C
 ,-1.3739962698,7.4203667418,0.\C,-0.6855810722,6.2379117324,0.\H,-1.23
 4105827,9.5814127975,0.\H,1.2279905023,9.6118783393,0.\H,3.383586165,8
 .3915615382,0.\H,0.9376042626,4.0716777803,0.\H,-2.4582714923,7.419272
 9803,0.\H,-1.2174406818,5.2917454594,0.\H,3.3995849322,4.1023905934,0.
 \H,4.6237257849,6.2652260864,0.\\Version=ES64L-G16RevA.03\State=1-A'\H
 F=-385.8432582\RMSD=2.574e-09\RMSF=7.445e-05\ZeroPoint=0.1484497\Therm
 al=0.155203\Dipole=0.0001725,0.0001322,0.\DipoleDeriv=0.0733784,0.0975
 696,0.0000002,0.0537833,-0.0564712,-0.0000026,0.,-0.0000002,-0.1493256
 ,-0.0886676,-0.043433,-0.0000011,0.0002011,0.1057906,0.0000041,0.,0.00
 00006,-0.1492549,0.0291337,0.0550599,0.0000006,0.0860118,0.053316,0.00
 0001,0.0000002,0.0000005,-0.149086,0.0472427,-0.1155668,-0.0000059,-0.
 1156997,-0.0914591,-0.0000016,0.0000002,-0.0000008,0.0333075,0.0474234
 ,-0.1155817,0.0000039,-0.1157193,-0.0915719,0.,-0.0000013,-0.0000005,0
 .0332841,-0.0154846,0.0593265,-0.000001,0.028517,0.0977815,-0.0000037,
 0.0000005,0.0000002,-0.1490693,-0.0152331,0.059264,0.0000005,0.0283821
 ,0.0979299,0.000003,0.0000002,0.,-0.149079,-0.0888728,-0.043337,0.0000
 003,0.0003933,0.1056128,-0.0000013,0.,0.0000005,-0.1492987,0.0732569,0
 .0975969,0.0000008,0.0537037,-0.0562724,-0.0000041,0.0000003,0.0000003
 ,-0.1493052,0.0292717,0.0550439,-0.0000006,0.0861334,0.0534537,0.00000
 29,0.,0.,-0.1491032,0.0236014,0.0797115,0.0000009,0.0832819,-0.0635724
 ,-0.0000003,0.,0.,0.1447087,0.0174467,-0.0957018,0.0000003,-0.0437199,
 -0.0547971,0.000001,-0.0000002,-0.0000003,0.1370402,0.0258129,-0.03875
 86,0.0000003,-0.090519,-0.0629919,0.0000002,-0.0000001,-0.0000002,0.13
 70725,0.017519,-0.0956552,0.,-0.0436905,-0.0546548,0.0000007,-0.000000
 2,-0.0000002,0.1370651,-0.1126243,0.001667,-0.0000002,-0.0017349,0.072
 4108,0.000001,0.,0.0000002,0.1446763,0.0258921,-0.0386194,0.,-0.090710
 2,-0.0632206,-0.0000006,-0.0000001,-0.0000003,0.1370347,0.0235979,0.07
 97562,0.,0.0834,-0.0637142,0.0000004,0.,-0.0000002,0.1446716,-0.112694
 4,0.0016579,0.000001,-0.002014,0.0724304,-0.0000001,0.0000002,0.000000
 3,0.1446611\Polar=151.1203025,-18.7718735,128.5998066,0.0000027,0.0000
 178,61.0766156\Quadrupole=3.3515798,3.2826911,-6.6342709,-0.0614599,0.
 ,0.\PG=CS [SG(C10H8)]\NImag=0\\0.75139755,-0.04143615,0.68223619,0.,-0
 .00000004,0.13726431,-0.16995744,-0.03858553,-0.00000002,0.73719597,-0
 .10705816,-0.25743397,0.00000007,-0.05010003,0.69654789,0.,0.00000008,
 -0.06468529,0.00000004,-0.00000013,0.13725271,-0.20214283,0.08429147,0
 .00000001,0.06540643,0.02444567,-0.00000001,0.65884504,0.14964916,-0.3
 3218502,0.00000001,-0.02391576,-0.05935806,-0.00000002,-0.00362407,0.7
 7773643,0.,0.00000008,-0.06322573,0.00000003,-0.00000012,0.00802558,0.
 ,-0.00000002,0.13824231,-0.02403214,0.07544576,-0.00000011,-0.05030630
 ,-0.03207704,0.00000018,-0.28780090,-0.03536259,0.00000016,0.69238603,
 0.03373462,0.00519127,-0.00000002,-0.00617661,-0.00273722,0.00000005,-
 0.00403946,-0.11430824,0.00000004,-0.01694333,0.67190394,0.,-0.0000001
 0,0.00681926,-0.00000006,0.00000016,-0.00668213,0.00000004,0.00000004,
 -0.06779333,-0.00000027,-0.00000008,0.16552164,0.00152917,0.02495269,0
 .00000007,-0.05073305,0.01771206,-0.00000013,-0.00290441,-0.03888412,-
 0.00000011,-0.18581230,-0.05247485,0.00000017,0.69223967,-0.00095153,-
 0.05460037,0.00000001,0.05943164,0.03189214,0.,-0.05557980,0.02841895,
 0.,-0.05240672,-0.24884392,0.00000002,-0.01709512,0.67212265,0.0000000
 2,-0.00000023,-0.00668369,-0.00000001,0.00000031,0.00681732,0.,0.00000
 006,0.00511621,-0.00000031,-0.00000003,-0.07487981,0.00000023,-0.00000
 004,0.16551343,-0.02655789,-0.07912272,-0.00000002,-0.40105996,0.03031
 556,0.00000003,-0.05091833,0.03062739,0.00000003,0.06179696,-0.0000441
 0,-0.00000004,-0.14288552,0.05166002,-0.00000008,0.74967987,-0.0307608
 3,0.03259519,-0.00000007,-0.03502416,-0.13335510,0.00000012,0.02562781
 ,-0.01715812,0.00000011,-0.01673875,-0.03627001,-0.00000016,0.08300549
 ,-0.25931172,-0.00000027,0.05077036,0.68702829,-0.00000001,0.00000013,
 0.00802924,0.00000001,-0.00000017,-0.06321160,-0.00000001,-0.00000004,
 -0.00312287,0.00000020,0.00000003,0.00511104,-0.00000014,0.00000003,-0
 .06778318,0.00000005,0.00000015,0.13822656,-0.00437821,-0.02636572,0.,
 0.01681489,0.01166663,-0.00000001,-0.04872490,0.04698912,-0.00000001,-
 0.14279021,0.05155523,0.00000002,0.06174786,-0.00008630,0.00000001,-0.
 01787601,0.00660626,-0.00000001,0.75002619,-0.00352167,0.01882785,0.00
 000005,-0.01254897,-0.00817682,-0.00000009,0.02591929,-0.00497726,-0.0
 0000008,0.08284267,-0.25905333,0.00000013,-0.01671400,-0.03623841,0.00
 000017,0.00660926,-0.00948992,-0.00000011,0.05077968,0.68663301,0.,0.0
 0000009,0.00602791,0.,-0.00000011,-0.00067702,-0.00000002,-0.00000003,
 0.00389369,0.00000015,0.00000002,-0.06780032,-0.00000009,0.00000002,0.
 00510786,0.00000003,0.00000010,0.00592122,0.,-0.00000008,0.13823840,-0
 .00050405,0.02321558,0.,-0.01835942,-0.01099788,0.,0.02586751,-0.00821
 107,-0.00000001,-0.05071418,0.05935259,0.00000001,-0.05025129,-0.00614
 404,0.00000005,0.01681581,-0.01254513,-0.00000003,-0.40150790,-0.03490
 094,-0.00000002,0.73753941,0.00022759,0.01356653,-0.00000002,-0.010996
 11,-0.00759768,0.00000004,0.01462673,-0.01142138,0.00000003,0.01770318
 ,0.03184600,-0.00000007,-0.03203858,-0.00269546,-0.00000004,0.01166574
 ,-0.00817550,0.00000003,0.03038873,-0.13332424,0.00000003,-0.05068753,
 0.69586721,0.,0.00000005,0.00004690,0.00000003,-0.00000009,0.00001261,
 0.,-0.00000002,0.00601977,0.00000012,0.00000003,0.00680825,-0.00000009
 ,0.,-0.00668726,0.00000002,0.00000008,-0.00067591,-0.00000001,-0.00000
 006,-0.06318329,0.,0.00000003,0.13726198,-0.00074359,-0.00041928,0.000
 00002,-0.00050678,0.00022585,-0.00000003,-0.00116368,0.00086876,-0.000
 00002,0.00153124,-0.00094045,0.00000004,-0.02401647,0.03372660,0.00000
 003,-0.00437300,-0.00352717,-0.00000002,-0.02655455,-0.03076674,-0.000
 00001,-0.16975257,-0.10663271,-0.00000002,0.75131274,-0.00042270,-0.02
 521719,-0.00000007,0.02321496,0.01356815,0.00000013,-0.02333900,0.0098
 0818,0.00000012,0.02495384,-0.05451399,-0.00000016,0.07537400,0.005141
 24,-0.00000033,-0.02636597,0.01882482,0.00000018,-0.07905602,0.0325684
 2,0.00000012,-0.03820811,-0.25675155,0.00000009,-0.04225036,0.68172064
 ,0.,0.00000006,0.00001243,0.,-0.00000009,0.00004817,0.,-0.00000002,-0.
 00067527,0.00000009,0.00000002,-0.00668229,-0.00000007,0.00000002,0.00
 680253,0.00000002,0.00000007,0.00601785,-0.00000001,-0.00000005,0.0080
 3151,0.,0.00000001,-0.06476031,0.,0.00000009,0.13730142,-0.00116625,-0
 .02334062,0.,0.02586579,0.01463133,0.00000002,-0.01753860,0.00680500,0
 .00000001,-0.00290737,-0.05551237,-0.00000003,-0.28753748,-0.00401753,
 -0.00000003,-0.04871886,0.02591217,0.00000002,-0.05086949,0.02560184,0
 .00000001,0.06535246,0.02439988,0.00000001,-0.20224676,0.08453151,0.00
 000001,0.65844839,0.00087171,0.00981107,0.00000005,-0.00821472,-0.0114
 2202,-0.00000009,0.00680510,-0.00982650,-0.00000008,-0.03889300,0.0283
 8271,0.00000011,-0.03529956,-0.11426725,0.00000023,0.04698050,-0.00497
 604,-0.00000013,0.03060005,-0.01715628,-0.00000009,-0.02389390,-0.0593
 2393,-0.00000006,0.14979866,-0.33240074,-0.00000006,-0.00404936,0.7778
 7402,0.,0.00000003,-0.00067673,0.00000001,-0.00000004,0.00602567,0.,0.
 ,0.00591924,0.00000006,0.00000001,0.00511619,-0.00000004,-0.00000001,-
 0.06780213,0.00000001,0.00000005,0.00389205,0.,-0.00000002,-0.00311404
 ,0.,0.00000001,0.00801729,-0.00000001,0.00000004,-0.06317509,0.,-0.000
 00003,0.13826086,-0.00055507,0.00025339,0.00000001,-0.00028315,-0.0002
 7422,-0.00000003,0.00030030,0.00138585,-0.00000002,-0.00560224,-0.0016
 7709,0.00000004,-0.00090463,-0.00039316,0.00000004,0.00045951,-0.00013
 970,-0.00000003,-0.01062243,0.02930310,-0.00000002,-0.13350741,0.12332
 188,-0.00000002,0.01161899,-0.01495299,-0.00000001,-0.00094371,-0.0033
 2253,0.,0.13843324,0.00009446,0.00021883,0.,-0.00016143,-0.00007107,0.
 ,0.00008262,-0.00006973,0.,-0.00103238,0.00155702,-0.00000001,-0.00089
 854,0.00043005,-0.00000002,0.00025486,-0.00010271,0.00000001,-0.003121
 10,0.00402103,0.,0.12421631,-0.26720963,0.,0.01688702,-0.01708310,0.,-
 0.00398346,-0.00321854,0.,-0.13308243,0.28102804,0.,0.00000002,-0.0006
 6795,0.,-0.00000002,0.00015025,0.,0.,0.00018889,0.00000003,0.,0.009227
 54,-0.00000002,0.,-0.00064066,0.,0.00000002,-0.00092865,0.,-0.00000001
 ,0.00421078,0.,0.,-0.03816829,0.,0.00000002,0.00288140,0.,-0.00000002,
 0.00539784,0.,0.,0.02606845,0.00006266,-0.00058504,0.,0.00036194,0.000
 19339,-0.00000001,0.00113401,0.00149993,-0.00000001,0.01049661,0.01439
 350,0.00000002,-0.00135572,0.00280481,0.00000002,0.00032223,0.00080935
 ,-0.00000001,-0.12646599,-0.11879720,0.,-0.00982457,-0.02943644,0.,-0.
 00550644,0.00134729,0.,-0.00066651,0.00071321,0.,0.00071123,0.00033426
 ,0.,0.13177940,0.00029552,0.00007082,0.00000002,0.00010937,0.00012233,
 -0.00000003,-0.00181143,0.00102403,-0.00000003,-0.01584453,-0.01861474
 ,0.00000004,0.00410159,-0.00249566,0.00000007,-0.00133495,-0.00069112,
 -0.00000004,-0.11950478,-0.27014538,-0.00000002,0.00291280,0.00338748,
 -0.00000002,0.00036289,0.00175661,-0.00000002,0.00088504,0.00017041,-0
 .00000001,-0.00035675,0.00076784,0.,0.12853685,0.28490757,0.,-0.000000
 09,-0.00012440,-0.00000002,0.00000013,-0.00011470,0.00000001,0.0000000
 3,-0.00297190,-0.00000017,-0.00000003,0.00324761,0.00000011,0.,0.00540
 024,-0.00000004,-0.00000012,-0.00004764,0.,0.00000009,-0.03724872,0.00
 000002,-0.00000003,0.00453844,0.00000002,-0.00000013,0.00862785,-0.000
 00002,0.00000010,-0.00104308,0.00000002,0.,-0.00527877,0.,0.00000003,0
 .02530586,0.01158577,0.01576439,0.,-0.00092023,0.00311494,0.,-0.127124
 94,-0.11996307,0.,-0.01024175,-0.02828746,0.00000002,-0.00524033,0.001
 76922,0.,-0.00075705,0.00083048,0.,0.00119236,-0.00177765,0.,0.0001963
 5,0.00037635,0.,0.00005193,-0.00007688,0.,-0.00019110,-0.00164274,0.,-
 0.00002622,0.00001688,0.,-0.00032160,0.00128456,0.,0.13108098,-0.01659
 144,-0.01803200,0.,0.00409566,-0.00283147,0.,-0.11923173,-0.26961894,0
 .,0.00194033,0.00216275,0.00000001,0.00047376,0.00139055,0.,0.00066045
 ,0.00025996,0.,0.00153056,0.00096538,0.,-0.00050535,-0.00006326,0.,0.0
 0000733,0.00043270,0.,0.00050188,-0.00017798,0.,-0.00005557,0.00000831
 ,0.,-0.00046802,0.00016832,0.,0.12817509,0.28570903,0.,-0.00000004,0.0
 0453038,-0.00000001,0.00000006,0.00862228,0.,0.00000001,-0.03721942,-0
 .00000008,-0.00000002,0.00324246,0.00000006,0.,0.00540540,-0.00000002,
 -0.00000006,-0.00104358,0.,0.00000004,-0.00297441,0.,-0.00000002,-0.00
 012412,0.00000001,-0.00000007,-0.00011485,0.,0.00000004,-0.00004733,0.
 00000001,0.,0.00016537,0.,0.00000002,0.00026683,0.,0.,0.02528741,-0.00
 550599,0.00134544,0.,-0.00980634,-0.02942356,0.,-0.00066620,0.00071309
 ,0.,-0.00135517,0.00280538,0.,0.01049976,0.01439379,0.,-0.12646887,-0.
 11883959,0.,0.00032200,0.00080934,0.,0.00036232,0.00019338,0.,0.000062
 09,-0.00058551,0.,0.00113467,0.00150100,0.,-0.00001565,-0.00003543,0.,
 -0.00013530,0.00021540,0.,0.00006910,-0.00010134,0.,0.13175831,0.00036
 395,0.00175595,0.00000001,0.00291721,0.00339020,-0.00000002,0.00088548
 ,0.00016920,-0.00000002,0.00410017,-0.00249611,0.00000003,-0.01584626,
 -0.01861742,0.00000006,-0.11953873,-0.27024402,-0.00000003,-0.00133464
 ,-0.00069110,-0.00000002,0.00010922,0.00012204,-0.00000002,0.00029563,
 0.00007121,-0.00000001,-0.00181252,0.00102426,0.,0.00007115,0.00003824
 ,0.,0.00021545,-0.00039204,0.00000002,-0.00010625,-0.00005548,0.000000
 01,0.12856815,0.28500733,0.,-0.00000009,0.00862221,-0.00000002,0.00000
 012,0.00452395,0.00000001,0.00000003,-0.00104377,-0.00000016,-0.000000
 04,0.00540591,0.00000010,-0.00000002,0.00325067,-0.00000003,-0.0000001
 0,-0.03722581,0.00000001,0.00000009,-0.00004755,0.00000002,-0.00000003
 ,-0.00011484,0.00000002,-0.00000012,-0.00012435,-0.00000002,0.00000009
 ,-0.00297559,0.00000002,-0.00000001,0.00004200,0.,0.00000002,0.0002116
 3,0.,0.,-0.00108536,0.,0.00000002,0.02529181,0.00006491,0.00004676,0.,
 -0.00013882,0.00034403,0.,-0.00000524,-0.00002330,0.,0.00064859,0.0000
 3135,0.,0.00085946,0.00284127,-0.00000001,-0.00061987,-0.00046906,0.,0
 .00060333,-0.00305849,0.,-0.01036717,0.00370418,0.,-0.34081250,-0.0002
 2447,0.,-0.01139467,-0.00358858,0.,0.00063790,-0.00036917,0.,-0.000661
 84,0.00014116,0.,0.00000820,-0.00002111,0.,0.00001629,0.00004228,0.,0.
 36051236,-0.00006538,-0.00041921,0.00000002,0.00050277,-0.00019684,-0.
 00000003,-0.00041824,0.00036134,-0.00000003,0.00053756,-0.00112183,0.0
 0000004,0.00219744,-0.00490233,0.00000007,0.00083372,0.00085062,-0.000
 00004,-0.00239519,-0.00477129,-0.00000003,-0.02815118,0.00486529,-0.00
 000002,-0.00108805,-0.05970887,-0.00000002,0.02882005,0.00480626,-0.00
 000001,0.00052250,0.00072803,0.,-0.00139419,0.00001491,0.00000003,0.00
 008544,0.00001438,0.00000002,-0.00003011,-0.00003407,0.00000003,0.0002
 2471,0.05878268,0.,0.00000008,0.00015041,0.00000002,-0.00000011,-0.000
 66781,-0.00000002,-0.00000003,-0.00092792,0.00000016,0.00000003,-0.000
 64046,-0.00000010,0.,0.00922822,0.00000003,0.00000010,0.00018943,0.,-0
 .00000008,0.00539812,-0.00000002,0.00000003,0.00289648,-0.00000002,0.0
 0000011,-0.03820071,0.00000001,-0.00000008,0.00420148,-0.00000002,0.,-
 0.00281956,0.,-0.00000002,0.00010916,0.,0.,0.00004201,0.,-0.00000002,0
 .00016556,0.,-0.00000003,0.02609509,0.00005229,-0.00007647,0.,0.000196
 23,0.00037597,0.,-0.00019127,-0.00164375,0.,-0.00524538,0.00176823,0.,
 -0.01027315,-0.02831151,0.,0.00119102,-0.00177864,0.,-0.00075631,0.000
 83077,0.,-0.00092207,0.00311430,0.,0.01158999,0.01575892,0.,-0.1269171
 1,-0.11972830,0.,0.00038899,0.00077097,0.,0.00006923,-0.00010623,0.,-0
 .00051430,-0.00001186,0.,-0.00032185,0.00128580,0.,0.00076179,-0.00032
 832,0.,0.13090986,0.00000740,0.00043209,0.,-0.00050463,-0.00006329,0.0
 0000002,0.00050138,-0.00017841,0.00000002,0.00047013,0.00139021,-0.000
 00003,0.00192786,0.00214164,-0.00000003,0.00153519,0.00096897,0.000000
 02,0.00065885,0.00026055,0.00000002,0.00409687,-0.00282380,0.00000001,
 -0.01657685,-0.01801589,0.,-0.11903670,-0.26959069,0.,-0.00076368,-0.0
 0103372,0.,-0.00010168,-0.00005552,-0.00000002,-0.00001202,-0.00001318
 ,0.,-0.00046891,0.00016852,-0.00000002,0.00036568,0.00071677,0.0000000
 2,0.12797781,0.28567292,0.,-0.00000010,-0.00011472,-0.00000002,0.00000
 014,-0.00012435,0.00000002,0.00000004,-0.00004797,-0.00000020,-0.00000
 004,0.00539938,0.00000012,-0.00000002,0.00325466,-0.00000004,-0.000000
 12,-0.00297056,0.00000002,0.00000011,-0.00104362,0.00000002,-0.0000000
 4,0.00862879,0.00000002,-0.00000014,0.00452637,-0.00000002,0.00000011,
 -0.03725740,0.00000003,-0.00000001,0.00011033,0.,0.00000003,-0.0010856
 1,0.,0.,0.00021165,0.,0.00000002,0.00026705,0.,0.00000004,-0.00528004,
 0.,-0.00000002,0.02531899,0.01162356,-0.01495211,0.,-0.13342458,0.1232
 0151,0.,-0.00094009,-0.00332266,0.,-0.00090533,-0.00039496,0.,-0.00560
 954,-0.00167409,0.,-0.01063935,0.02931487,0.,0.00045952,-0.00013988,0.
 ,-0.00028310,-0.00027443,0.,-0.00055548,0.00025356,0.,0.00030087,0.001
 38608,0.,-0.00000460,0.00001782,0.,-0.00001559,0.00007110,0.,0.0003883
 8,-0.00076343,0.,0.00071120,-0.00035753,0.,-0.00008498,0.00014245,0.,-
 0.00002616,-0.00005556,0.,0.13836820,0.01689232,-0.01709306,0.,0.12409
 849,-0.26714465,-0.00000001,-0.00398323,-0.00321608,-0.00000001,-0.000
 89952,0.00042961,0.00000002,-0.00103062,0.00155869,0.00000004,-0.00311
 307,0.00401474,-0.00000002,0.00025477,-0.00010272,-0.00000002,-0.00016
 107,-0.00007118,0.,0.00009442,0.00021853,0.,0.00008219,-0.00007008,0.,
 0.00001782,-0.00001459,0.,-0.00003535,0.00003824,0.00000002,0.00077080
 ,-0.00103418,0.,0.00033269,0.00076781,0.00000001,0.00000878,0.00000568
 ,-0.00000001,0.00001691,0.00000837,0.00000002,-0.13297669,0.28097515,0
 .,-0.00000003,0.00288704,-0.00000001,0.00000004,-0.03820381,0.,0.00000
 001,0.00540894,-0.00000006,-0.00000002,-0.00064111,0.00000004,0.,0.009
 22158,-0.00000001,-0.00000004,0.00421471,0.,0.00000003,-0.00092954,0.,
 -0.00000001,0.00015030,0.,-0.00000004,-0.00066679,0.,0.00000003,0.0001
 8930,0.,0.,0.00008046,0.,0.,0.00004195,0.,0.,0.00010972,0.,0.,-0.00527
 405,0.,0.00000001,-0.00001957,0.,0.,0.00016500,0.,0.,0.02609328,-0.340
 77246,-0.00043184,0.00000002,-0.01034519,0.00370396,-0.00000003,-0.011
 43191,-0.00358790,-0.00000003,0.00085381,0.00284979,0.00000004,0.00064
 795,0.00003247,0.00000004,0.00060932,-0.00305377,-0.00000003,-0.000620
 16,-0.00047040,-0.00000002,-0.00014014,0.00034388,-0.00000002,0.000064
 85,0.00004793,-0.00000001,-0.00000426,-0.00002364,0.,-0.00008507,0.000
 00873,0.,0.00001627,0.00004239,0.00000002,0.00076444,0.00036479,0.0000
 0001,-0.00066040,0.00014143,0.00000002,-0.00002773,0.00000402,-0.00000
 002,0.00000820,-0.00002113,0.00000003,0.00063708,-0.00036967,0.0000000
 1,0.36048540,-0.00132887,-0.05972496,0.,-0.02814216,0.00486749,0.,0.02
 884141,0.00479961,0.,0.00220423,-0.00490411,0.,0.00053676,-0.00112338,
 0.,-0.00239351,-0.00476833,0.,0.00083386,0.00085051,0.,0.00050283,-0.0
 0019695,0.,-0.00006554,-0.00041917,0.,-0.00041831,0.00036131,0.,0.0001
 4241,0.00000571,0.,-0.00003012,-0.00003410,0.,-0.00032210,0.00071510,0
 .,-0.00139320,0.00001547,0.,0.00000397,0.00000848,0.,0.00008543,0.0000
 1445,0.,0.00052392,0.00072971,0.,0.00041896,0.05880315,-0.00000001,0.0
 0000011,-0.03821160,0.00000003,-0.00000015,0.00288817,-0.00000002,-0.0
 0000004,0.00421357,0.00000020,0.00000004,0.00922017,-0.00000013,0.0000
 0001,-0.00064139,0.00000004,0.00000014,0.00540769,-0.00000001,-0.00000
 011,0.00018903,-0.00000002,0.00000004,-0.00066677,-0.00000002,0.000000
 16,0.00015015,0.00000002,-0.00000012,-0.00092852,-0.00000003,0.0000000
 1,-0.00001944,-0.00000001,-0.00000003,0.00016524,0.,0.,-0.00527444,0.,
 -0.00000002,0.00011054,0.,-0.00000004,0.00008012,0.,0.00000002,0.00004
 204,0.,-0.00000002,-0.00282743,-0.00000003,0.,0.02610286\\-0.00014734,
 -0.00020431,0.,0.00013147,0.00019275,0.,0.00006831,0.00011262,0.,-0.00
 006547,-0.00010096,0.,0.00015325,-0.00006875,0.,0.00002065,-0.00010354
 ,0.,-0.00012308,0.00002913,0.,-0.00000176,0.00019734,0.,0.00001496,-0.
 00013052,0.,-0.00007932,0.00009644,0.,0.00001211,-0.00001436,0.,0.0000
 2768,-0.00000924,0.,0.00000010,-0.00002832,0.,-0.00003582,0.00004014,0
 .,-0.00003568,0.00006719,0.,0.00004262,-0.00007346,0.,-0.00002228,-0.0
 0003652,0.,0.00003959,0.00003438,0.\\\@


 HE WHO LAUGHS LAST PROBABLY DIDN'T GET THE JOKE.
 Job cpu time:       0 days  1 hours 27 minutes  9.3 seconds.
 Elapsed time:       0 days  0 hours  2 minutes 18.2 seconds.
 File lengths (MBytes):  RWF=    118 Int=      0 D2E=      0 Chk=      7 Scr=      1
 Normal termination of Gaussian 16 at Tue Aug  9 19:35:59 2022.
